 # Bcc Fe oriented X=[111], Y=[-101], Z=[1-21].
 CRYSTAL
 PRIMVEC
     26.06130251        0.00000000        0.00000000
      0.00000000       40.53136070        0.00000000
      0.00000000        0.00000000       70.20237600
 CONVVEC
     26.06130251        0.00000000        0.00000000
      0.00000000       40.53136070        0.00000000
      0.00000000        0.00000000       70.20237600
 PRIMCOORD
     6000 1
26        0.00000000        0.00000000        0.00000000
26        0.00000000        2.02656803        3.51011880
26        1.73742016        0.00000000        4.68015840
26        1.73742016        2.02656803        1.17003960
26        0.86871009        0.00000000        2.34007920
26        0.86871009        2.02656803        5.85019800
26        2.60613025        0.00000000        0.00000000
26        2.60613025        2.02656803        3.51011880
26        4.34355041        0.00000000        4.68015840
26        4.34355041        2.02656803        1.17003960
26        3.47484034        0.00000000        2.34007920
26        3.47484034        2.02656803        5.85019800
26        5.21226050        0.00000000        0.00000000
26        5.21226050        2.02656803        3.51011880
26        6.94968066        0.00000000        4.68015840
26        6.94968066        2.02656803        1.17003960
26        6.08097059        0.00000000        2.34007920
26        6.08097059        2.02656803        5.85019800
26        7.81839075        0.00000000        0.00000000
26        7.81839075        2.02656803        3.51011880
26        9.55581092        0.00000000        4.68015840
26        9.55581092        2.02656803        1.17003960
26        8.68710084        0.00000000        2.34007920
26        8.68710084        2.02656803        5.85019800
26       10.42452100        0.00000000        0.00000000
26       10.42452100        2.02656803        3.51011880
26       12.16194117        0.00000000        4.68015840
26       12.16194117        2.02656803        1.17003960
26       11.29323109        0.00000000        2.34007920
26       11.29323109        2.02656803        5.85019800
26       13.03065125        0.00000000        0.00000000
26       13.03065125        2.02656803        3.51011880
26       14.76807142        0.00000000        4.68015840
26       14.76807142        2.02656803        1.17003960
26       13.89936134        0.00000000        2.34007920
26       13.89936134        2.02656803        5.85019800
26       15.63678150        0.00000000        0.00000000
26       15.63678150        2.02656803        3.51011880
26       17.37420167        0.00000000        4.68015840
26       17.37420167        2.02656803        1.17003960
26       16.50549159        0.00000000        2.34007920
26       16.50549159        2.02656803        5.85019800
26       18.24291175        0.00000000        0.00000000
26       18.24291175        2.02656803        3.51011880
26       19.98033192        0.00000000        4.68015840
26       19.98033192        2.02656803        1.17003960
26       19.11162184        0.00000000        2.34007920
26       19.11162184        2.02656803        5.85019800
26       20.84904200        0.00000000        0.00000000
26       20.84904200        2.02656803        3.51011880
26       22.58646217        0.00000000        4.68015840
26       22.58646217        2.02656803        1.17003960
26       21.71775209        0.00000000        2.34007920
26       21.71775209        2.02656803        5.85019800
26       23.45517225        0.00000000        0.00000000
26       23.45517225        2.02656803        3.51011880
26       25.19259242        0.00000000        4.68015840
26       25.19259242        2.02656803        1.17003960
26       24.32388234        0.00000000        2.34007920
26       24.32388234        2.02656803        5.85019800
26        0.00000000        4.05313607        0.00000000
26        0.00000000        6.07970410        3.51011880
26        1.73742016        4.05313607        4.68015840
26        1.73742016        6.07970410        1.17003960
26        0.86871009        4.05313607        2.34007920
26        0.86871009        6.07970410        5.85019800
26        2.60613025        4.05313607        0.00000000
26        2.60613025        6.07970410        3.51011880
26        4.34355041        4.05313607        4.68015840
26        4.34355041        6.07970410        1.17003960
26        3.47484034        4.05313607        2.34007920
26        3.47484034        6.07970410        5.85019800
26        5.21226050        4.05313607        0.00000000
26        5.21226050        6.07970410        3.51011880
26        6.94968066        4.05313607        4.68015840
26        6.94968066        6.07970410        1.17003960
26        6.08097059        4.05313607        2.34007920
26        6.08097059        6.07970410        5.85019800
26        7.81839075        4.05313607        0.00000000
26        7.81839075        6.07970410        3.51011880
26        9.55581092        4.05313607        4.68015840
26        9.55581092        6.07970410        1.17003960
26        8.68710084        4.05313607        2.34007920
26        8.68710084        6.07970410        5.85019800
26       10.42452100        4.05313607        0.00000000
26       10.42452100        6.07970410        3.51011880
26       12.16194117        4.05313607        4.68015840
26       12.16194117        6.07970410        1.17003960
26       11.29323109        4.05313607        2.34007920
26       11.29323109        6.07970410        5.85019800
26       13.03065125        4.05313607        0.00000000
26       13.03065125        6.07970410        3.51011880
26       14.76807142        4.05313607        4.68015840
26       14.76807142        6.07970410        1.17003960
26       13.89936134        4.05313607        2.34007920
26       13.89936134        6.07970410        5.85019800
26       15.63678150        4.05313607        0.00000000
26       15.63678150        6.07970410        3.51011880
26       17.37420167        4.05313607        4.68015840
26       17.37420167        6.07970410        1.17003960
26       16.50549159        4.05313607        2.34007920
26       16.50549159        6.07970410        5.85019800
26       18.24291175        4.05313607        0.00000000
26       18.24291175        6.07970410        3.51011880
26       19.98033192        4.05313607        4.68015840
26       19.98033192        6.07970410        1.17003960
26       19.11162184        4.05313607        2.34007920
26       19.11162184        6.07970410        5.85019800
26       20.84904200        4.05313607        0.00000000
26       20.84904200        6.07970410        3.51011880
26       22.58646217        4.05313607        4.68015840
26       22.58646217        6.07970410        1.17003960
26       21.71775209        4.05313607        2.34007920
26       21.71775209        6.07970410        5.85019800
26       23.45517225        4.05313607        0.00000000
26       23.45517225        6.07970410        3.51011880
26       25.19259242        4.05313607        4.68015840
26       25.19259242        6.07970410        1.17003960
26       24.32388234        4.05313607        2.34007920
26       24.32388234        6.07970410        5.85019800
26        0.00000000        8.10627214        0.00000000
26        0.00000000       10.13284017        3.51011880
26        1.73742016        8.10627214        4.68015840
26        1.73742016       10.13284017        1.17003960
26        0.86871009        8.10627214        2.34007920
26        0.86871009       10.13284017        5.85019800
26        2.60613025        8.10627214        0.00000000
26        2.60613025       10.13284017        3.51011880
26        4.34355041        8.10627214        4.68015840
26        4.34355041       10.13284017        1.17003960
26        3.47484034        8.10627214        2.34007920
26        3.47484034       10.13284017        5.85019800
26        5.21226050        8.10627214        0.00000000
26        5.21226050       10.13284017        3.51011880
26        6.94968066        8.10627214        4.68015840
26        6.94968066       10.13284017        1.17003960
26        6.08097059        8.10627214        2.34007920
26        6.08097059       10.13284017        5.85019800
26        7.81839075        8.10627214        0.00000000
26        7.81839075       10.13284017        3.51011880
26        9.55581092        8.10627214        4.68015840
26        9.55581092       10.13284017        1.17003960
26        8.68710084        8.10627214        2.34007920
26        8.68710084       10.13284017        5.85019800
26       10.42452100        8.10627214        0.00000000
26       10.42452100       10.13284017        3.51011880
26       12.16194117        8.10627214        4.68015840
26       12.16194117       10.13284017        1.17003960
26       11.29323109        8.10627214        2.34007920
26       11.29323109       10.13284017        5.85019800
26       13.03065125        8.10627214        0.00000000
26       13.03065125       10.13284017        3.51011880
26       14.76807142        8.10627214        4.68015840
26       14.76807142       10.13284017        1.17003960
26       13.89936134        8.10627214        2.34007920
26       13.89936134       10.13284017        5.85019800
26       15.63678150        8.10627214        0.00000000
26       15.63678150       10.13284017        3.51011880
26       17.37420167        8.10627214        4.68015840
26       17.37420167       10.13284017        1.17003960
26       16.50549159        8.10627214        2.34007920
26       16.50549159       10.13284017        5.85019800
26       18.24291175        8.10627214        0.00000000
26       18.24291175       10.13284017        3.51011880
26       19.98033192        8.10627214        4.68015840
26       19.98033192       10.13284017        1.17003960
26       19.11162184        8.10627214        2.34007920
26       19.11162184       10.13284017        5.85019800
26       20.84904200        8.10627214        0.00000000
26       20.84904200       10.13284017        3.51011880
26       22.58646217        8.10627214        4.68015840
26       22.58646217       10.13284017        1.17003960
26       21.71775209        8.10627214        2.34007920
26       21.71775209       10.13284017        5.85019800
26       23.45517225        8.10627214        0.00000000
26       23.45517225       10.13284017        3.51011880
26       25.19259242        8.10627214        4.68015840
26       25.19259242       10.13284017        1.17003960
26       24.32388234        8.10627214        2.34007920
26       24.32388234       10.13284017        5.85019800
26        0.00000000       12.15940821        0.00000000
26        0.00000000       14.18597624        3.51011880
26        1.73742016       12.15940821        4.68015840
26        1.73742016       14.18597624        1.17003960
26        0.86871009       12.15940821        2.34007920
26        0.86871009       14.18597624        5.85019800
26        2.60613025       12.15940821        0.00000000
26        2.60613025       14.18597624        3.51011880
26        4.34355041       12.15940821        4.68015840
26        4.34355041       14.18597624        1.17003960
26        3.47484034       12.15940821        2.34007920
26        3.47484034       14.18597624        5.85019800
26        5.21226050       12.15940821        0.00000000
26        5.21226050       14.18597624        3.51011880
26        6.94968066       12.15940821        4.68015840
26        6.94968066       14.18597624        1.17003960
26        6.08097059       12.15940821        2.34007920
26        6.08097059       14.18597624        5.85019800
26        7.81839075       12.15940821        0.00000000
26        7.81839075       14.18597624        3.51011880
26        9.55581092       12.15940821        4.68015840
26        9.55581092       14.18597624        1.17003960
26        8.68710084       12.15940821        2.34007920
26        8.68710084       14.18597624        5.85019800
26       10.42452100       12.15940821        0.00000000
26       10.42452100       14.18597624        3.51011880
26       12.16194117       12.15940821        4.68015840
26       12.16194117       14.18597624        1.17003960
26       11.29323109       12.15940821        2.34007920
26       11.29323109       14.18597624        5.85019800
26       13.03065125       12.15940821        0.00000000
26       13.03065125       14.18597624        3.51011880
26       14.76807142       12.15940821        4.68015840
26       14.76807142       14.18597624        1.17003960
26       13.89936134       12.15940821        2.34007920
26       13.89936134       14.18597624        5.85019800
26       15.63678150       12.15940821        0.00000000
26       15.63678150       14.18597624        3.51011880
26       17.37420167       12.15940821        4.68015840
26       17.37420167       14.18597624        1.17003960
26       16.50549159       12.15940821        2.34007920
26       16.50549159       14.18597624        5.85019800
26       18.24291175       12.15940821        0.00000000
26       18.24291175       14.18597624        3.51011880
26       19.98033192       12.15940821        4.68015840
26       19.98033192       14.18597624        1.17003960
26       19.11162184       12.15940821        2.34007920
26       19.11162184       14.18597624        5.85019800
26       20.84904200       12.15940821        0.00000000
26       20.84904200       14.18597624        3.51011880
26       22.58646217       12.15940821        4.68015840
26       22.58646217       14.18597624        1.17003960
26       21.71775209       12.15940821        2.34007920
26       21.71775209       14.18597624        5.85019800
26       23.45517225       12.15940821        0.00000000
26       23.45517225       14.18597624        3.51011880
26       25.19259242       12.15940821        4.68015840
26       25.19259242       14.18597624        1.17003960
26       24.32388234       12.15940821        2.34007920
26       24.32388234       14.18597624        5.85019800
26        0.00000000       16.21254428        0.00000000
26        0.00000000       18.23911231        3.51011880
26        1.73742016       16.21254428        4.68015840
26        1.73742016       18.23911231        1.17003960
26        0.86871009       16.21254428        2.34007920
26        0.86871009       18.23911231        5.85019800
26        2.60613025       16.21254428        0.00000000
26        2.60613025       18.23911231        3.51011880
26        4.34355041       16.21254428        4.68015840
26        4.34355041       18.23911231        1.17003960
26        3.47484034       16.21254428        2.34007920
26        3.47484034       18.23911231        5.85019800
26        5.21226050       16.21254428        0.00000000
26        5.21226050       18.23911231        3.51011880
26        6.94968066       16.21254428        4.68015840
26        6.94968066       18.23911231        1.17003960
26        6.08097059       16.21254428        2.34007920
26        6.08097059       18.23911231        5.85019800
26        7.81839075       16.21254428        0.00000000
26        7.81839075       18.23911231        3.51011880
26        9.55581092       16.21254428        4.68015840
26        9.55581092       18.23911231        1.17003960
26        8.68710084       16.21254428        2.34007920
26        8.68710084       18.23911231        5.85019800
26       10.42452100       16.21254428        0.00000000
26       10.42452100       18.23911231        3.51011880
26       12.16194117       16.21254428        4.68015840
26       12.16194117       18.23911231        1.17003960
26       11.29323109       16.21254428        2.34007920
26       11.29323109       18.23911231        5.85019800
26       13.03065125       16.21254428        0.00000000
26       13.03065125       18.23911231        3.51011880
26       14.76807142       16.21254428        4.68015840
26       14.76807142       18.23911231        1.17003960
26       13.89936134       16.21254428        2.34007920
26       13.89936134       18.23911231        5.85019800
26       15.63678150       16.21254428        0.00000000
26       15.63678150       18.23911231        3.51011880
26       17.37420167       16.21254428        4.68015840
26       17.37420167       18.23911231        1.17003960
26       16.50549159       16.21254428        2.34007920
26       16.50549159       18.23911231        5.85019800
26       18.24291175       16.21254428        0.00000000
26       18.24291175       18.23911231        3.51011880
26       19.98033192       16.21254428        4.68015840
26       19.98033192       18.23911231        1.17003960
26       19.11162184       16.21254428        2.34007920
26       19.11162184       18.23911231        5.85019800
26       20.84904200       16.21254428        0.00000000
26       20.84904200       18.23911231        3.51011880
26       22.58646217       16.21254428        4.68015840
26       22.58646217       18.23911231        1.17003960
26       21.71775209       16.21254428        2.34007920
26       21.71775209       18.23911231        5.85019800
26       23.45517225       16.21254428        0.00000000
26       23.45517225       18.23911231        3.51011880
26       25.19259242       16.21254428        4.68015840
26       25.19259242       18.23911231        1.17003960
26       24.32388234       16.21254428        2.34007920
26       24.32388234       18.23911231        5.85019800
26        0.00000000       20.26568035        0.00000000
26        0.00000000       22.29224838        3.51011880
26        1.73742016       20.26568035        4.68015840
26        1.73742016       22.29224838        1.17003960
26        0.86871009       20.26568035        2.34007920
26        0.86871009       22.29224838        5.85019800
26        2.60613025       20.26568035        0.00000000
26        2.60613025       22.29224838        3.51011880
26        4.34355041       20.26568035        4.68015840
26        4.34355041       22.29224838        1.17003960
26        3.47484034       20.26568035        2.34007920
26        3.47484034       22.29224838        5.85019800
26        5.21226050       20.26568035        0.00000000
26        5.21226050       22.29224838        3.51011880
26        6.94968066       20.26568035        4.68015840
26        6.94968066       22.29224838        1.17003960
26        6.08097059       20.26568035        2.34007920
26        6.08097059       22.29224838        5.85019800
26        7.81839075       20.26568035        0.00000000
26        7.81839075       22.29224838        3.51011880
26        9.55581092       20.26568035        4.68015840
26        9.55581092       22.29224838        1.17003960
26        8.68710084       20.26568035        2.34007920
26        8.68710084       22.29224838        5.85019800
26       10.42452100       20.26568035        0.00000000
26       10.42452100       22.29224838        3.51011880
26       12.16194117       20.26568035        4.68015840
26       12.16194117       22.29224838        1.17003960
26       11.29323109       20.26568035        2.34007920
26       11.29323109       22.29224838        5.85019800
26       13.03065125       20.26568035        0.00000000
26       13.03065125       22.29224838        3.51011880
26       14.76807142       20.26568035        4.68015840
26       14.76807142       22.29224838        1.17003960
26       13.89936134       20.26568035        2.34007920
26       13.89936134       22.29224838        5.85019800
26       15.63678150       20.26568035        0.00000000
26       15.63678150       22.29224838        3.51011880
26       17.37420167       20.26568035        4.68015840
26       17.37420167       22.29224838        1.17003960
26       16.50549159       20.26568035        2.34007920
26       16.50549159       22.29224838        5.85019800
26       18.24291175       20.26568035        0.00000000
26       18.24291175       22.29224838        3.51011880
26       19.98033192       20.26568035        4.68015840
26       19.98033192       22.29224838        1.17003960
26       19.11162184       20.26568035        2.34007920
26       19.11162184       22.29224838        5.85019800
26       20.84904200       20.26568035        0.00000000
26       20.84904200       22.29224838        3.51011880
26       22.58646217       20.26568035        4.68015840
26       22.58646217       22.29224838        1.17003960
26       21.71775209       20.26568035        2.34007920
26       21.71775209       22.29224838        5.85019800
26       23.45517225       20.26568035        0.00000000
26       23.45517225       22.29224838        3.51011880
26       25.19259242       20.26568035        4.68015840
26       25.19259242       22.29224838        1.17003960
26       24.32388234       20.26568035        2.34007920
26       24.32388234       22.29224838        5.85019800
26        0.00000000       24.31881642        0.00000000
26        0.00000000       26.34538445        3.51011880
26        1.73742016       24.31881642        4.68015840
26        1.73742016       26.34538445        1.17003960
26        0.86871009       24.31881642        2.34007920
26        0.86871009       26.34538445        5.85019800
26        2.60613025       24.31881642        0.00000000
26        2.60613025       26.34538445        3.51011880
26        4.34355041       24.31881642        4.68015840
26        4.34355041       26.34538445        1.17003960
26        3.47484034       24.31881642        2.34007920
26        3.47484034       26.34538445        5.85019800
26        5.21226050       24.31881642        0.00000000
26        5.21226050       26.34538445        3.51011880
26        6.94968066       24.31881642        4.68015840
26        6.94968066       26.34538445        1.17003960
26        6.08097059       24.31881642        2.34007920
26        6.08097059       26.34538445        5.85019800
26        7.81839075       24.31881642        0.00000000
26        7.81839075       26.34538445        3.51011880
26        9.55581092       24.31881642        4.68015840
26        9.55581092       26.34538445        1.17003960
26        8.68710084       24.31881642        2.34007920
26        8.68710084       26.34538445        5.85019800
26       10.42452100       24.31881642        0.00000000
26       10.42452100       26.34538445        3.51011880
26       12.16194117       24.31881642        4.68015840
26       12.16194117       26.34538445        1.17003960
26       11.29323109       24.31881642        2.34007920
26       11.29323109       26.34538445        5.85019800
26       13.03065125       24.31881642        0.00000000
26       13.03065125       26.34538445        3.51011880
26       14.76807142       24.31881642        4.68015840
26       14.76807142       26.34538445        1.17003960
26       13.89936134       24.31881642        2.34007920
26       13.89936134       26.34538445        5.85019800
26       15.63678150       24.31881642        0.00000000
26       15.63678150       26.34538445        3.51011880
26       17.37420167       24.31881642        4.68015840
26       17.37420167       26.34538445        1.17003960
26       16.50549159       24.31881642        2.34007920
26       16.50549159       26.34538445        5.85019800
26       18.24291175       24.31881642        0.00000000
26       18.24291175       26.34538445        3.51011880
26       19.98033192       24.31881642        4.68015840
26       19.98033192       26.34538445        1.17003960
26       19.11162184       24.31881642        2.34007920
26       19.11162184       26.34538445        5.85019800
26       20.84904200       24.31881642        0.00000000
26       20.84904200       26.34538445        3.51011880
26       22.58646217       24.31881642        4.68015840
26       22.58646217       26.34538445        1.17003960
26       21.71775209       24.31881642        2.34007920
26       21.71775209       26.34538445        5.85019800
26       23.45517225       24.31881642        0.00000000
26       23.45517225       26.34538445        3.51011880
26       25.19259242       24.31881642        4.68015840
26       25.19259242       26.34538445        1.17003960
26       24.32388234       24.31881642        2.34007920
26       24.32388234       26.34538445        5.85019800
26        0.00000000       28.37195249        0.00000000
26        0.00000000       30.39852052        3.51011880
26        1.73742016       28.37195249        4.68015840
26        1.73742016       30.39852052        1.17003960
26        0.86871009       28.37195249        2.34007920
26        0.86871009       30.39852052        5.85019800
26        2.60613025       28.37195249        0.00000000
26        2.60613025       30.39852052        3.51011880
26        4.34355041       28.37195249        4.68015840
26        4.34355041       30.39852052        1.17003960
26        3.47484034       28.37195249        2.34007920
26        3.47484034       30.39852052        5.85019800
26        5.21226050       28.37195249        0.00000000
26        5.21226050       30.39852052        3.51011880
26        6.94968066       28.37195249        4.68015840
26        6.94968066       30.39852052        1.17003960
26        6.08097059       28.37195249        2.34007920
26        6.08097059       30.39852052        5.85019800
26        7.81839075       28.37195249        0.00000000
26        7.81839075       30.39852052        3.51011880
26        9.55581092       28.37195249        4.68015840
26        9.55581092       30.39852052        1.17003960
26        8.68710084       28.37195249        2.34007920
26        8.68710084       30.39852052        5.85019800
26       10.42452100       28.37195249        0.00000000
26       10.42452100       30.39852052        3.51011880
26       12.16194117       28.37195249        4.68015840
26       12.16194117       30.39852052        1.17003960
26       11.29323109       28.37195249        2.34007920
26       11.29323109       30.39852052        5.85019800
26       13.03065125       28.37195249        0.00000000
26       13.03065125       30.39852052        3.51011880
26       14.76807142       28.37195249        4.68015840
26       14.76807142       30.39852052        1.17003960
26       13.89936134       28.37195249        2.34007920
26       13.89936134       30.39852052        5.85019800
26       15.63678150       28.37195249        0.00000000
26       15.63678150       30.39852052        3.51011880
26       17.37420167       28.37195249        4.68015840
26       17.37420167       30.39852052        1.17003960
26       16.50549159       28.37195249        2.34007920
26       16.50549159       30.39852052        5.85019800
26       18.24291175       28.37195249        0.00000000
26       18.24291175       30.39852052        3.51011880
26       19.98033192       28.37195249        4.68015840
26       19.98033192       30.39852052        1.17003960
26       19.11162184       28.37195249        2.34007920
26       19.11162184       30.39852052        5.85019800
26       20.84904200       28.37195249        0.00000000
26       20.84904200       30.39852052        3.51011880
26       22.58646217       28.37195249        4.68015840
26       22.58646217       30.39852052        1.17003960
26       21.71775209       28.37195249        2.34007920
26       21.71775209       30.39852052        5.85019800
26       23.45517225       28.37195249        0.00000000
26       23.45517225       30.39852052        3.51011880
26       25.19259242       28.37195249        4.68015840
26       25.19259242       30.39852052        1.17003960
26       24.32388234       28.37195249        2.34007920
26       24.32388234       30.39852052        5.85019800
26        0.00000000       32.42508856        0.00000000
26        0.00000000       34.45165659        3.51011880
26        1.73742016       32.42508856        4.68015840
26        1.73742016       34.45165659        1.17003960
26        0.86871009       32.42508856        2.34007920
26        0.86871009       34.45165659        5.85019800
26        2.60613025       32.42508856        0.00000000
26        2.60613025       34.45165659        3.51011880
26        4.34355041       32.42508856        4.68015840
26        4.34355041       34.45165659        1.17003960
26        3.47484034       32.42508856        2.34007920
26        3.47484034       34.45165659        5.85019800
26        5.21226050       32.42508856        0.00000000
26        5.21226050       34.45165659        3.51011880
26        6.94968066       32.42508856        4.68015840
26        6.94968066       34.45165659        1.17003960
26        6.08097059       32.42508856        2.34007920
26        6.08097059       34.45165659        5.85019800
26        7.81839075       32.42508856        0.00000000
26        7.81839075       34.45165659        3.51011880
26        9.55581092       32.42508856        4.68015840
26        9.55581092       34.45165659        1.17003960
26        8.68710084       32.42508856        2.34007920
26        8.68710084       34.45165659        5.85019800
26       10.42452100       32.42508856        0.00000000
26       10.42452100       34.45165659        3.51011880
26       12.16194117       32.42508856        4.68015840
26       12.16194117       34.45165659        1.17003960
26       11.29323109       32.42508856        2.34007920
26       11.29323109       34.45165659        5.85019800
26       13.03065125       32.42508856        0.00000000
26       13.03065125       34.45165659        3.51011880
26       14.76807142       32.42508856        4.68015840
26       14.76807142       34.45165659        1.17003960
26       13.89936134       32.42508856        2.34007920
26       13.89936134       34.45165659        5.85019800
26       15.63678150       32.42508856        0.00000000
26       15.63678150       34.45165659        3.51011880
26       17.37420167       32.42508856        4.68015840