 # Bcc Fe oriented X=[111], Y=[-101], Z=[1-21].
 CRYSTAL
 PRIMVEC
     26.06130251        0.00000000        0.00000000
      0.00000000       60.79704105        0.00000000
      0.00000000        0.00000000       70.20237600
 CONVVEC
     26.06130251        0.00000000        0.00000000
      0.00000000       60.79704105        0.00000000
      0.00000000        0.00000000       70.20237600
 PRIMCOORD
     9900 1
26        0.00000000        0.00000000        0.00000000
26        0.00000000        2.02656803        3.51011880
26        1.57947288        0.00000000        4.68015840
26        1.57947288        2.02656803        1.17003960
26        0.78973644        0.00000000        2.34007920
26        0.78973644        2.02656803        5.85019800
26        2.36920932        0.00000000        0.00000000
26        2.36920932        2.02656803        3.51011880
26        3.94868219        0.00000000        4.68015840
26        3.94868219        2.02656803        1.17003960
26        3.15894576        0.00000000        2.34007920
26        3.15894576        2.02656803        5.85019800
26        4.73841864        0.00000000        0.00000000
26        4.73841864        2.02656803        3.51011880
26        6.31789151        0.00000000        4.68015840
26        6.31789151        2.02656803        1.17003960
26        5.52815508        0.00000000        2.34007920
26        5.52815508        2.02656803        5.85019800
26        7.10762796        0.00000000        0.00000000
26        7.10762796        2.02656803        3.51011880
26        8.68710083        0.00000000        4.68015840
26        8.68710083        2.02656803        1.17003960
26        7.89736440        0.00000000        2.34007920
26        7.89736440        2.02656803        5.85019800
26        9.47683727        0.00000000        0.00000000
26        9.47683727        2.02656803        3.51011880
26       11.05631015        0.00000000        4.68015840
26       11.05631015        2.02656803        1.17003960
26       10.26657372        0.00000000        2.34007920
26       10.26657372        2.02656803        5.85019800
26       11.84604659        0.00000000        0.00000000
26       11.84604659        2.02656803        3.51011880
26       13.42551947        0.00000000        4.68015840
26       13.42551947        2.02656803        1.17003960
26       12.63578304        0.00000000        2.34007920
26       12.63578304        2.02656803        5.85019800
26       14.21525591        0.00000000        0.00000000
26       14.21525591        2.02656803        3.51011880
26       15.79472879        0.00000000        4.68015840
26       15.79472879        2.02656803        1.17003960
26       15.00499235        0.00000000        2.34007920
26       15.00499235        2.02656803        5.85019800
26       16.58446523        0.00000000        0.00000000
26       16.58446523        2.02656803        3.51011880
26       18.16393811        0.00000000        4.68015840
26       18.16393811        2.02656803        1.17003960
26       17.37420167        0.00000000        2.34007920
26       17.37420167        2.02656803        5.85019800
26       18.95367455        0.00000000        0.00000000
26       18.95367455        2.02656803        3.51011880
26       20.53314743        0.00000000        4.68015840
26       20.53314743        2.02656803        1.17003960
26       19.74341099        0.00000000        2.34007920
26       19.74341099        2.02656803        5.85019800
26       21.32288387        0.00000000        0.00000000
26       21.32288387        2.02656803        3.51011880
26       22.90235674        0.00000000        4.68015840
26       22.90235674        2.02656803        1.17003960
26       22.11262031        0.00000000        2.34007920
26       22.11262031        2.02656803        5.85019800
26       23.69209319        0.00000000        0.00000000
26       23.69209319        2.02656803        3.51011880
26       25.27156606        0.00000000        4.68015840
26       25.27156606        2.02656803        1.17003960
26       24.48182963        0.00000000        2.34007920
26       24.48182963        2.02656803        5.85019800
26        0.00000000        4.05313607        0.00000000
26        0.00000000        6.07970410        3.51011880
26        1.57947288        4.05313607        4.68015840
26        1.57947288        6.07970410        1.17003960
26        0.78973644        4.05313607        2.34007920
26        0.78973644        6.07970410        5.85019800
26        2.36920932        4.05313607        0.00000000
26        2.36920932        6.07970410        3.51011880
26        3.94868219        4.05313607        4.68015840
26        3.94868219        6.07970410        1.17003960
26        3.15894576        4.05313607        2.34007920
26        3.15894576        6.07970410        5.85019800
26        4.73841864        4.05313607        0.00000000
26        4.73841864        6.07970410        3.51011880
26        6.31789151        4.05313607        4.68015840
26        6.31789151        6.07970410        1.17003960
26        5.52815508        4.05313607        2.34007920
26        5.52815508        6.07970410        5.85019800
26        7.10762796        4.05313607        0.00000000
26        7.10762796        6.07970410        3.51011880
26        8.68710083        4.05313607        4.68015840
26        8.68710083        6.07970410        1.17003960
26        7.89736440        4.05313607        2.34007920
26        7.89736440        6.07970410        5.85019800
26        9.47683727        4.05313607        0.00000000
26        9.47683727        6.07970410        3.51011880
26       11.05631015        4.05313607        4.68015840
26       11.05631015        6.07970410        1.17003960
26       10.26657372        4.05313607        2.34007920
26       10.26657372        6.07970410        5.85019800
26       11.84604659        4.05313607        0.00000000
26       11.84604659        6.07970410        3.51011880
26       13.42551947        4.05313607        4.68015840
26       13.42551947        6.07970410        1.17003960
26       12.63578304        4.05313607        2.34007920
26       12.63578304        6.07970410        5.85019800
26       14.21525591        4.05313607        0.00000000
26       14.21525591        6.07970410        3.51011880
26       15.79472879        4.05313607        4.68015840
26       15.79472879        6.07970410        1.17003960
26       15.00499235        4.05313607        2.34007920
26       15.00499235        6.07970410        5.85019800
26       16.58446523        4.05313607        0.00000000
26       16.58446523        6.07970410        3.51011880
26       18.16393811        4.05313607        4.68015840
26       18.16393811        6.07970410        1.17003960
26       17.37420167        4.05313607        2.34007920
26       17.37420167        6.07970410        5.85019800
26       18.95367455        4.05313607        0.00000000
26       18.95367455        6.07970410        3.51011880
26       20.53314743        4.05313607        4.68015840
26       20.53314743        6.07970410        1.17003960
26       19.74341099        4.05313607        2.34007920
26       19.74341099        6.07970410        5.85019800
26       21.32288387        4.05313607        0.00000000
26       21.32288387        6.07970410        3.51011880
26       22.90235674        4.05313607        4.68015840
26       22.90235674        6.07970410        1.17003960
26       22.11262031        4.05313607        2.34007920
26       22.11262031        6.07970410        5.85019800
26       23.69209319        4.05313607        0.00000000
26       23.69209319        6.07970410        3.51011880
26       25.27156606        4.05313607        4.68015840
26       25.27156606        6.07970410        1.17003960
26       24.48182963        4.05313607        2.34007920
26       24.48182963        6.07970410        5.85019800
26        0.00000000        8.10627214        0.00000000
26        0.00000000       10.13284017        3.51011880
26        1.57947288        8.10627214        4.68015840
26        1.57947288       10.13284017        1.17003960
26        0.78973644        8.10627214        2.34007920
26        0.78973644       10.13284017        5.85019800
26        2.36920932        8.10627214        0.00000000
26        2.36920932       10.13284017        3.51011880
26        3.94868219        8.10627214        4.68015840
26        3.94868219       10.13284017        1.17003960
26        3.15894576        8.10627214        2.34007920
26        3.15894576       10.13284017        5.85019800
26        4.73841864        8.10627214        0.00000000
26        4.73841864       10.13284017        3.51011880
26        6.31789151        8.10627214        4.68015840
26        6.31789151       10.13284017        1.17003960
26        5.52815508        8.10627214        2.34007920
26        5.52815508       10.13284017        5.85019800
26        7.10762796        8.10627214        0.00000000
26        7.10762796       10.13284017        3.51011880
26        8.68710083        8.10627214        4.68015840
26        8.68710083       10.13284017        1.17003960
26        7.89736440        8.10627214        2.34007920
26        7.89736440       10.13284017        5.85019800
26        9.47683727        8.10627214        0.00000000
26        9.47683727       10.13284017        3.51011880
26       11.05631015        8.10627214        4.68015840
26       11.05631015       10.13284017        1.17003960
26       10.26657372        8.10627214        2.34007920
26       10.26657372       10.13284017        5.85019800
26       11.84604659        8.10627214        0.00000000
26       11.84604659       10.13284017        3.51011880
26       13.42551947        8.10627214        4.68015840
26       13.42551947       10.13284017        1.17003960
26       12.63578304        8.10627214        2.34007920
26       12.63578304       10.13284017        5.85019800
26       14.21525591        8.10627214        0.00000000
26       14.21525591       10.13284017        3.51011880
26       15.79472879        8.10627214        4.68015840
26       15.79472879       10.13284017        1.17003960
26       15.00499235        8.10627214        2.34007920
26       15.00499235       10.13284017        5.85019800
26       16.58446523        8.10627214        0.00000000
26       16.58446523       10.13284017        3.51011880
26       18.16393811        8.10627214        4.68015840
26       18.16393811       10.13284017        1.17003960
26       17.37420167        8.10627214        2.34007920
26       17.37420167       10.13284017        5.85019800
26       18.95367455        8.10627214        0.00000000
26       18.95367455       10.13284017        3.51011880
26       20.53314743        8.10627214        4.68015840
26       20.53314743       10.13284017        1.17003960
26       19.74341099        8.10627214        2.34007920
26       19.74341099       10.13284017        5.85019800
26       21.32288387        8.10627214        0.00000000
26       21.32288387       10.13284017        3.51011880
26       22.90235674        8.10627214        4.68015840
26       22.90235674       10.13284017        1.17003960
26       22.11262031        8.10627214        2.34007920
26       22.11262031       10.13284017        5.85019800
26       23.69209319        8.10627214        0.00000000
26       23.69209319       10.13284017        3.51011880
26       25.27156606        8.10627214        4.68015840
26       25.27156606       10.13284017        1.17003960
26       24.48182963        8.10627214        2.34007920
26       24.48182963       10.13284017        5.85019800
26        0.00000000       12.15940821        0.00000000
26        0.00000000       14.18597624        3.51011880
26        1.57947288       12.15940821        4.68015840
26        1.57947288       14.18597624        1.17003960
26        0.78973644       12.15940821        2.34007920
26        0.78973644       14.18597624        5.85019800
26        2.36920932       12.15940821        0.00000000
26        2.36920932       14.18597624        3.51011880
26        3.94868219       12.15940821        4.68015840
26        3.94868219       14.18597624        1.17003960
26        3.15894576       12.15940821        2.34007920
26        3.15894576       14.18597624        5.85019800
26        4.73841864       12.15940821        0.00000000
26        4.73841864       14.18597624        3.51011880
26        6.31789151       12.15940821        4.68015840
26        6.31789151       14.18597624        1.17003960
26        5.52815508       12.15940821        2.34007920
26        5.52815508       14.18597624        5.85019800
26        7.10762796       12.15940821        0.00000000
26        7.10762796       14.18597624        3.51011880
26        8.68710083       12.15940821        4.68015840
26        8.68710083       14.18597624        1.17003960
26        7.89736440       12.15940821        2.34007920
26        7.89736440       14.18597624        5.85019800
26        9.47683727       12.15940821        0.00000000
26        9.47683727       14.18597624        3.51011880
26       11.05631015       12.15940821        4.68015840
26       11.05631015       14.18597624        1.17003960
26       10.26657372       12.15940821        2.34007920
26       10.26657372       14.18597624        5.85019800
26       11.84604659       12.15940821        0.00000000
26       11.84604659       14.18597624        3.51011880
26       13.42551947       12.15940821        4.68015840
26       13.42551947       14.18597624        1.17003960
26       12.63578304       12.15940821        2.34007920
26       12.63578304       14.18597624        5.85019800
26       14.21525591       12.15940821        0.00000000
26       14.21525591       14.18597624        3.51011880
26       15.79472879       12.15940821        4.68015840
26       15.79472879       14.18597624        1.17003960
26       15.00499235       12.15940821        2.34007920
26       15.00499235       14.18597624        5.85019800
26       16.58446523       12.15940821        0.00000000
26       16.58446523       14.18597624        3.51011880
26       18.16393811       12.15940821        4.68015840
26       18.16393811       14.18597624        1.17003960
26       17.37420167       12.15940821        2.34007920
26       17.37420167       14.18597624        5.85019800
26       18.95367455       12.15940821        0.00000000
26       18.95367455       14.18597624        3.51011880
26       20.53314743       12.15940821        4.68015840
26       20.53314743       14.18597624        1.17003960
26       19.74341099       12.15940821        2.34007920
26       19.74341099       14.18597624        5.85019800
26       21.32288387       12.15940821        0.00000000
26       21.32288387       14.18597624        3.51011880
26       22.90235674       12.15940821        4.68015840
26       22.90235674       14.18597624        1.17003960
26       22.11262031       12.15940821        2.34007920
26       22.11262031       14.18597624        5.85019800
26       23.69209319       12.15940821        0.00000000
26       23.69209319       14.18597624        3.51011880
26       25.27156606       12.15940821        4.68015840
26       25.27156606       14.18597624        1.17003960
26       24.48182963       12.15940821        2.34007920
26       24.48182963       14.18597624        5.85019800
26        0.00000000       16.21254428        0.00000000
26        0.00000000       18.23911231        3.51011880
26        1.57947288       16.21254428        4.68015840
26        1.57947288       18.23911231        1.17003960
26        0.78973644       16.21254428        2.34007920
26        0.78973644       18.23911231        5.85019800
26        2.36920932       16.21254428        0.00000000
26        2.36920932       18.23911231        3.51011880
26        3.94868219       16.21254428        4.68015840
26        3.94868219       18.23911231        1.17003960
26        3.15894576       16.21254428        2.34007920
26        3.15894576       18.23911231        5.85019800
26        4.73841864       16.21254428        0.00000000
26        4.73841864       18.23911231        3.51011880
26        6.31789151       16.21254428        4.68015840
26        6.31789151       18.23911231        1.17003960
26        5.52815508       16.21254428        2.34007920
26        5.52815508       18.23911231        5.85019800
26        7.10762796       16.21254428        0.00000000
26        7.10762796       18.23911231        3.51011880
26        8.68710083       16.21254428        4.68015840
26        8.68710083       18.23911231        1.17003960
26        7.89736440       16.21254428        2.34007920
26        7.89736440       18.23911231        5.85019800
26        9.47683727       16.21254428        0.00000000
26        9.47683727       18.23911231        3.51011880
26       11.05631015       16.21254428        4.68015840
26       11.05631015       18.23911231        1.17003960
26       10.26657372       16.21254428        2.34007920
26       10.26657372       18.23911231        5.85019800
26       11.84604659       16.21254428        0.00000000
26       11.84604659       18.23911231        3.51011880
26       13.42551947       16.21254428        4.68015840
26       13.42551947       18.23911231        1.17003960
26       12.63578304       16.21254428        2.34007920
26       12.63578304       18.23911231        5.85019800
26       14.21525591       16.21254428        0.00000000
26       14.21525591       18.23911231        3.51011880
26       15.79472879       16.21254428        4.68015840
26       15.79472879       18.23911231        1.17003960
26       15.00499235       16.21254428        2.34007920
26       15.00499235       18.23911231        5.85019800
26       16.58446523       16.21254428        0.00000000
26       16.58446523       18.23911231        3.51011880
26       18.16393811       16.21254428        4.68015840
26       18.16393811       18.23911231        1.17003960
26       17.37420167       16.21254428        2.34007920
26       17.37420167       18.23911231        5.85019800
26       18.95367455       16.21254428        0.00000000
26       18.95367455       18.23911231        3.51011880
26       20.53314743       16.21254428        4.68015840
26       20.53314743       18.23911231        1.17003960
26       19.74341099       16.21254428        2.34007920
26       19.74341099       18.23911231        5.85019800
26       21.32288387       16.21254428        0.00000000
26       21.32288387       18.23911231        3.51011880
26       22.90235674       16.21254428        4.68015840
26       22.90235674       18.23911231        1.17003960
26       22.11262031       16.21254428        2.34007920
26       22.11262031       18.23911231        5.85019800
26       23.69209319       16.21254428        0.00000000
26       23.69209319       18.23911231        3.51011880
26       25.27156606       16.21254428        4.68015840
26       25.27156606       18.23911231        1.17003960
26       24.48182963       16.21254428        2.34007920
26       24.48182963       18.23911231        5.85019800
26        0.00000000       20.26568035        0.00000000
26        0.00000000       22.29224838        3.51011880
26        1.57947288       20.26568035        4.68015840
26        1.57947288       22.29224838        1.17003960
26        0.78973644       20.26568035        2.34007920
26        0.78973644       22.29224838        5.85019800
26        2.36920932       20.26568035        0.00000000
26        2.36920932       22.29224838        3.51011880
26        3.94868219       20.26568035        4.68015840
26        3.94868219       22.29224838        1.17003960
26        3.15894576       20.26568035        2.34007920
26        3.15894576       22.29224838        5.85019800
26        4.73841864       20.26568035        0.00000000
26        4.73841864       22.29224838        3.51011880
26        6.31789151       20.26568035        4.68015840
26        6.31789151       22.29224838        1.17003960
26        5.52815508       20.26568035        2.34007920
26        5.52815508       22.29224838        5.85019800
26        7.10762796       20.26568035        0.00000000
26        7.10762796       22.29224838        3.51011880
26        8.68710083       20.26568035        4.68015840
26        8.68710083       22.29224838        1.17003960
26        7.89736440       20.26568035        2.34007920
26        7.89736440       22.29224838        5.85019800
26        9.47683727       20.26568035        0.00000000
26        9.47683727       22.29224838        3.51011880
26       11.05631015       20.26568035        4.68015840
26       11.05631015       22.29224838        1.17003960
26       10.26657372       20.26568035        2.34007920
26       10.26657372       22.29224838        5.85019800
26       11.84604659       20.26568035        0.00000000
26       11.84604659       22.29224838        3.51011880
26       13.42551947       20.26568035        4.68015840
26       13.42551947       22.29224838        1.17003960
26       12.63578304       20.26568035        2.34007920
26       12.63578304       22.29224838        5.85019800
26       14.21525591       20.26568035        0.00000000
26       14.21525591       22.29224838        3.51011880
26       15.79472879       20.26568035        4.68015840
26       15.79472879       22.29224838        1.17003960
26       15.00499235       20.26568035        2.34007920
26       15.00499235       22.29224838        5.85019800
26       16.58446523       20.26568035        0.00000000
26       16.58446523       22.29224838        3.51011880
26       18.16393811       20.26568035        4.68015840
26       18.16393811       22.29224838        1.17003960
26       17.37420167       20.26568035        2.34007920
26       17.37420167       22.29224838        5.85019800
26       18.95367455       20.26568035        0.00000000
26       18.95367455       22.29224838        3.51011880
26       20.53314743       20.26568035        4.68015840
26       20.53314743       22.29224838        1.17003960
26       19.74341099       20.26568035        2.34007920
26       19.74341099       22.29224838        5.85019800
26       21.32288387       20.26568035        0.00000000
26       21.32288387       22.29224838        3.51011880
26       22.90235674       20.26568035        4.68015840
26       22.90235674       22.29224838        1.17003960
26       22.11262031       20.26568035        2.34007920
26       22.11262031       22.29224838        5.85019800
26       23.69209319       20.26568035        0.00000000
26       23.69209319       22.29224838        3.51011880
26       25.27156606       20.26568035        4.68015840
26       25.27156606       22.29224838        1.17003960
26       24.48182963       20.26568035        2.34007920
26       24.48182963       22.29224838        5.85019800
26        0.00000000       24.31881642        0.00000000
26        0.00000000       26.34538445        3.51011880
26        1.57947288       24.31881642        4.68015840
26        1.57947288       26.34538445        1.17003960
26        0.78973644       24.31881642        2.34007920
26        0.78973644       26.34538445        5.85019800
26        2.36920932       24.31881642        0.00000000
26        2.36920932       26.34538445        3.51011880
26        3.94868219       24.31881642        4.68015840
26        3.94868219       26.34538445        1.17003960
26        3.15894576       24.31881642        2.34007920
26        3.15894576       26.34538445        5.85019800
26        4.73841864       24.31881642        0.00000000
26        4.73841864       26.34538445        3.51011880
26        6.31789151       24.31881642        4.68015840
26        6.31789151       26.34538445        1.17003960
26        5.52815508       24.31881642        2.34007920
26        5.52815508       26.34538445        5.85019800
26        7.10762796       24.31881642        0.00000000
26        7.10762796       26.34538445        3.51011880
26        8.68710083       24.31881642        4.68015840
26        8.68710083       26.34538445        1.17003960
26        7.89736440       24.31881642        2.34007920
26        7.89736440       26.34538445        5.85019800
26        9.47683727       24.31881642        0.00000000
26        9.47683727       26.34538445        3.51011880
26       11.05631015       24.31881642        4.68015840
26       11.05631015       26.34538445        1.17003960
26       10.26657372       24.31881642        2.34007920
26       10.26657372       26.34538445        5.85019800
26       11.84604659       24.31881642        0.00000000
26       11.84604659       26.34538445        3.51011880
26       13.42551947       24.31881642        4.68015840
26       13.42551947       26.34538445        1.17003960
26       12.63578304       24.31881642        2.34007920
26       12.63578304       26.34538445        5.85019800
26       14.21525591       24.31881642        0.00000000
26       14.21525591       26.34538445        3.51011880
26       15.79472879       24.31881642        4.68015840
26       15.79472879       26.34538445        1.17003960
26       15.00499235       24.31881642        2.34007920
26       15.00499235       26.34538445        5.85019800
26       16.58446523       24.31881642        0.00000000
26       16.58446523       26.34538445        3.51011880
26       18.16393811       24.31881642        4.68015840
26       18.16393811       26.34538445        1.17003960
26       17.37420167       24.31881642        2.34007920
26       17.37420167       26.34538445        5.85019800
26       18.95367455       24.31881642        0.00000000
26       18.95367455       26.34538445        3.51011880
26       20.53314743       24.31881642        4.68015840
26       20.53314743       26.34538445        1.17003960
26       19.74341099       24.31881642        2.34007920
26       19.74341099       26.34538445        5.85019800
26       21.32288387       24.31881642        0.00000000
26       21.32288387       26.34538445        3.51011880
26       22.90235674       24.31881642        4.68015840
26       22.90235674       26.34538445        1.17003960
26       22.11262031       24.31881642        2.34007920
26       22.11262031       26.34538445        5.85019800
26       23.69209319       24.31881642        0.00000000
26       23.69209319       26.34538445        3.51011880
26       25.27156606       24.31881642        4.68015840
26       25.27156606       26.34538445        1.17003960
26       24.48182963       24.31881642        2.34007920
26       24.48182963       26.34538445        5.85019800
26        0.00000000       28.37195249        0.00000000
26        0.00000000       30.39852052        3.51011880
26        1.57947288       28.37195249        4.68015840
26        1.57947288       30.39852052        1.17003960
26        0.78973644       28.37195249        2.34007920
26        0.78973644       30.39852052        5.85019800
26        2.36920932       28.37195249        0.00000000
26        2.36920932       30.39852052        3.51011880
26        3.94868219       28.37195249        4.68015840
26        3.94868219       30.39852052        1.17003960
26        3.15894576       28.37195249        2.34007920
26        3.15894576       30.39852052        5.85019800
26        4.73841864       28.37195249        0.00000000
26        4.73841864       30.39852052        3.51011880
26        6.31789151       28.37195249        4.68015840
26        6.31789151       30.39852052        1.17003960
26        5.52815508       28.37195249        2.34007920
26        5.52815508       30.39852052        5.85019800
26        7.10762796       28.37195249        0.00000000
26        7.10762796       30.39852052        3.51011880
26        8.68710083       28.37195249        4.68015840
26        8.68710083       30.39852052        1.17003960
26        7.89736440       28.37195249        2.34007920
26        7.89736440       30.39852052        5.85019800
26        9.47683727       28.37195249        0.00000000
26        9.47683727       30.39852052        3.51011880
26       11.05631015       28.37195249        4.68015840
26       11.05631015       30.39852052        1.17003960
26       10.26657372       28.37195249        2.34007920
26       10.26657372       30.39852052        5.85019800
26       11.84604659       28.37195249        0.00000000
26       11.84604659       30.39852052        3.51011880
26       13.42551947       28.37195249        4.68015840
26       13.42551947       30.39852052        1.17003960
26       12.63578304       28.37195249        2.34007920
26       12.63578304       30.39852052        5.85019800
26       14.21525591       28.37195249        0.00000000
26       14.21525591       30.39852052        3.51011880
26       15.79472879       28.37195249        4.68015840
26       15.79472879       30.39852052        1.17003960
26       15.00499235       28.37195249        2.34007920
26       15.00499235       30.39852052        5.85019800
26       16.58446523       28.37195249        0.00000000
26       16.58446523       30.39852052        3.51011880
26       18.16393811       28.37195249        4.68015840
26       18.16393811       30.39852052        1.17003960
26       17.37420167       28.37195249        2.34007920
26       17.37420167       30.39852052        5.85019800
26       18.95367455       28.37195249        0.00000000
26       18.95367455       30.39852052        3.51011880
26       20.53314743       28.37195249        4.68015840
26       20.53314743       30.39852052        1.17003960
26       19.74341099       28.37195249        2.34007920
26       19.74341099       30.39852052        5.85019800
26       21.32288387       28.37195249        0.00000000
26       21.32288387       30.39852052        3.51011880
26       22.90235674       28.37195249        4.68015840