LAMMPS (29 Aug 2024 - Update 1)
OMP_NUM_THREADS environment is not set. Defaulting to 1 thread. (src/comm.cpp:98)
  using 1 OpenMP thread(s) per MPI task
Loaded 1 plugins from C:\Users\Ethan\AppData\Local\LAMMPS 64-bit 29Aug2024-MSMPI\plugins
## Edge Dislocation Molecular Dynamics Study
# Ethan L. Edmunds, Dec 2024

# EAM Potential: L. Proville, D. Rodney, and M.-C. Marinica (2012), "Quantum effect on thermally activated glide of dislocations", Nature Materials, 11(10), 845-849. DOI: 10.1038/nmat3401.

# Clear previous data in Dump Folder
shell del /q dump\*

# Set the units
units metal
atom_style atomic

# Set boundary conditions to be periodic in all axes
boundary p p p

# Get lammps to creat bcc lattice
# Default orientation: [100], [010], and [001] directions along the x, y, and z axes respectively
lattice bcc 2.866
Lattice spacing in x,y,z = 2.866 2.866 2.866
region box block 0 5 0 10 0 20
create_box 1 box
Created orthogonal box = (0 0 0) to (14.33 28.66 57.32)
  1 by 1 by 2 MPI processor grid
create_atoms 1 box
Created 2000 atoms
  using lattice units in orthogonal box = (0 0 0) to (14.33 28.66 57.32)
  create_atoms CPU = 0.000 seconds

# Select EAM potential to use
pair_style eam/fs
pair_coeff * * MCM2011_eam.fs Fe

# Methodology, inspired by:
# "Atomistic simulations of dislocation mobility in refractory high-entropy alloys and the effect of chemical short-range order"
# "Learning dislocation dynamics mobility laws from large-scale MD simulations"
# "Probing the limits of metal plasticity with molecular dynamics simulations"

print "Simulation Started"
Simulation Started

# SETTINGS
compute csym all centro/atom bcc
compute peratom all pe/atom

# Thermalisation
# Equilibrate the system at 300 K using the Langevin thermostat
timestep 0.001 # Timestep of 1 femto second

# Initialise all the atoms with a velocity distribution corresponding to a 300K
velocity all create 300.0 4928459 mom yes rot yes dist gaussian

# Use a nose-hoover thermostat to maintain a target temperature (300k) and a barostat to regulate the pressure
# Look up this commant to understand the thermostat and barostat used
fix	1 all npt temp 300.0 300.0 $(100.0*dt) iso 0.0 0.0 $(1000.0*dt)
fix	1 all npt temp 300.0 300.0 0.10000000000000000555 iso 0.0 0.0 $(1000.0*dt)
fix	1 all npt temp 300.0 300.0 0.10000000000000000555 iso 0.0 0.0 1

# set output options for atom level data
dump 1 all custom 500 dump/dumpFile.* id type id type x y z vx vy vz c_csym c_peratom fx fy fz # Dump atomic data (ID, type, positions, velocities, stress, and forces) every 500 timesteps into files named dumpFile.* in the dump folder.

# Set output options for lammps logfile, including frequency of data output
thermo_style custom step dt time temp press ke pe etotal
thermo 100

run 50000  # Run for 20000 timesteps for equilibration
Neighbor list info ...
  update: every = 1 steps, delay = 0 steps, check = yes
  max neighbors/atom: 2000, page size: 100000
  master list distance cutoff = 7.5
  ghost atom cutoff = 7.5
  binsize = 3.75, bins = 4 8 16
  2 neighbor lists, perpetual/occasional/extra = 1 1 0
  (1) pair eam/fs, perpetual
      attributes: half, newton on
      pair build: half/bin/atomonly/newton
      stencil: half/bin/3d
      bin: standard
  (2) compute centro/atom, occasional
      attributes: full, newton on
      pair build: full/bin/atomonly
      stencil: full/bin/3d
      bin: standard
Per MPI rank memory allocation (min/avg/max) = 4.226 | 4.226 | 4.226 Mbytes
   Step           Dt            Time           Temp          Press          KinEng         PotEng         TotEng    
         0   0.001          0              300           -96356.804      77.517309     -8206.3842     -8128.8669    
       100   0.001          0.1            147.79225      17643.991      38.188191     -8196.3424     -8158.1543    
       200   0.001          0.2            196.95258      7406.9765      50.89078      -8197.9757     -8147.0849    
       300   0.001          0.3            239.90899     -6555.118       61.990332     -8196.4885     -8134.4982    
       400   0.001          0.4            247.05401     -1250.6378      63.836541     -8185.3026     -8121.4661    
       500   0.001          0.5            272.87196      6199.1822      70.507666     -8179.2959     -8108.7882    
       600   0.001          0.6            300.95933     -1688.3944      77.765191     -8176.0564     -8098.2913    
       700   0.001          0.7            302.09038     -1172.8097      78.057444     -8170.2337     -8092.1763    
       800   0.001          0.8            307.4648       3426.137       79.446145     -8172.3371     -8092.891     
       900   0.001          0.9            301.75939     -1724.0751      77.97192      -8176.6999     -8098.7279    
      1000   0.001          1              295.58148     -1329.4294      76.375604     -8179.8453     -8103.4697    
      1100   0.001          1.1            288.87837      789.91976      74.64358      -8178.2972     -8103.6536    
      1200   0.001          1.2            298.56848     -2818.7562      77.147418     -8176.4949     -8099.3475    
      1300   0.001          1.3            307.12002     -964.83957      79.357057     -8174.7706     -8095.4136    
      1400   0.001          1.4            311.69609      2354.5697      80.539475     -8175.3194     -8094.7799    
      1500   0.001          1.5            298.20589     -1651.9182      77.053727     -8174.856      -8097.8023    
      1600   0.001          1.6            303.6791      -1258.9246      78.467956     -8179.842      -8101.3741    
      1700   0.001          1.7            289.15659      4057.2457      74.71547      -8177.4427     -8102.7273    
      1800   0.001          1.8            301.92797     -1945.8475      78.015479     -8178.318      -8100.3025    
      1900   0.001          1.9            307.91782     -1380.177       79.563202     -8176.0184     -8096.4552    
      2000   0.001          2              311.50384      193.91429      80.489799     -8175.4179     -8094.9281    
      2100   0.001          2.1            297.99433     -723.81123      76.999062     -8174.3606     -8097.3615    
      2200   0.001          2.2            304.08216      1052.0885      78.572103     -8178.8342     -8100.2621    
      2300   0.001          2.3            288.38827      1332.8554      74.516942     -8176.3851     -8101.8681    
      2400   0.001          2.4            294.13005     -2357.3287      76.000566     -8176.4459     -8100.4453    
      2500   0.001          2.5            297.56358      2053.5388      76.88776      -8174.4528     -8097.565     
      2600   0.001          2.6            299.88189      1482.5706      77.486789     -8173.5354     -8096.0486    
      2700   0.001          2.7            303.61944     -3427.9345      78.45254      -8175.4178     -8096.9652    
      2800   0.001          2.8            300.09657      2080.1798      77.542262     -8176.9047     -8099.3624    
      2900   0.001          2.9            297.35692      346.15738      76.834361     -8178.197      -8101.3626    
      3000   0.001          3              291.68854     -1838.6106      75.369702     -8176.5594     -8101.1897    
      3100   0.001          3.1            308.70418      1443.8321      79.766391     -8177.9819     -8098.2155    
      3200   0.001          3.2            309.80408     -1391.9942      80.050594     -8176.2799     -8096.2293    
      3300   0.001          3.3            300.64045     -1784.1845      77.682796     -8174.4047     -8096.7219    
      3400   0.001          3.4            300.92329      548.07227      77.755879     -8176.8973     -8099.1414    
      3500   0.001          3.5            290.69012      1141.7647      75.111719     -8176.3511     -8101.2393    
      3600   0.001          3.6            291.47697     -385.86166      75.315035     -8176.1866     -8100.8715    
      3700   0.001          3.7            297.03027      1092.0091      76.749959     -8175.2085     -8098.4586    
      3800   0.001          3.8            307.71416      395.18812      79.510579     -8176.3486     -8096.8381    
      3900   0.001          3.9            304.25972      848.28485      78.617982     -8175.6826     -8097.0647    
      4000   0.001          4              300.37823      508.38731      77.61504      -8176.8251     -8099.2101    
      4100   0.001          4.1            297.64749      170.53227      76.909442     -8177.7459     -8100.8364    
      4200   0.001          4.2            290.96084     -393.5632       75.181672     -8175.625      -8100.4433    
      4300   0.001          4.3            304.23495      357.96404      78.611582     -8176.6018     -8097.9902    
      4400   0.001          4.4            309.39433     -1261.3666      79.944719     -8176.6679     -8096.7232    
      4500   0.001          4.5            298.90252     -862.54154      77.233729     -8174.9469     -8097.7132    
      4600   0.001          4.6            302.31038      404.39048      78.11429      -8179.2784     -8101.1641    
      4700   0.001          4.7            288.79722     -708.17859      74.622611     -8176.9891     -8102.3665    
      4800   0.001          4.8            293.55983      1348.3257      75.853227     -8176.5552     -8100.702     
      4900   0.001          4.9            300.57886      1512.3953      77.666882     -8176.3173     -8098.6504    
      5000   0.001          5              300.81337     -2844.3653      77.727475     -8175.4955     -8097.768     
      5100   0.001          5.1            290.08535      3665.7025      74.955451     -8173.1489     -8098.1935    
      5200   0.001          5.2            300.08429      1156.6865      77.539088     -8178.5631     -8101.024     
      5300   0.001          5.3            291.97722     -3022.5946      75.444293     -8178.7532     -8103.3089    
      5400   0.001          5.4            289.77632      1863.6641      74.875601     -8176.0412     -8101.1656    
      5500   0.001          5.5            301.3438       1658.0659      77.864535     -8176.8548     -8098.9903    
      5600   0.001          5.6            303.74412      352.90143      78.484757     -8176.719      -8098.2342    
      5700   0.001          5.7            301.53841     -487.43023      77.91482      -8175.8167     -8097.9019    
      5800   0.001          5.8            305.56721     -3110.3688      78.955825     -8177.3987     -8098.4428    
      5900   0.001          5.9            297.90778      1711.412       76.976697     -8177.9445     -8100.9678    
      6000   0.001          6              290.44216      1379.7467      75.047648     -8177.2154     -8102.1678    
      6100   0.001          6.1            297.36482     -3133.5296      76.836401     -8176.1817     -8099.3453    
      6200   0.001          6.2            302.39078      486.95232      78.135066     -8175.7031     -8097.5681    
      6300   0.001          6.3            300.67873      1135.1766      77.692687     -8175.715      -8098.0223    
      6400   0.001          6.4            289.7646       386.60853      74.872573     -8174.1605     -8099.2879    
      6500   0.001          6.5            292.96774      578.00077      75.700236     -8177.0421     -8101.3419    
      6600   0.001          6.6            290.31792      1583.0523      75.015547     -8179.0877     -8104.0722    
      6700   0.001          6.7            290.21944      647.32751      74.9901       -8178.0854     -8103.0953    
      6800   0.001          6.8            301.1404      -1568.5628      77.811978     -8177.0258     -8099.2138    
      6900   0.001          6.9            301.41137      1569.6528      77.881995     -8175.9289     -8098.0469    
      7000   0.001          7              306.21965     -791.01739      79.12441      -8176.3905     -8097.266     
      7100   0.001          7.1            298.99319     -1877.8407      77.257158     -8175.5581     -8098.3009    
      7200   0.001          7.2            299.03788      2535.46        77.268707     -8178.4129     -8101.1442    
      7300   0.001          7.3            299.3854      -1078.4987      77.358503     -8179.215      -8101.8565    
      7400   0.001          7.4            295.26879     -2570.5606      76.294807     -8175.4905     -8099.1957    
      7500   0.001          7.5            306.31365      2229.6092      79.1487       -8175.7524     -8096.6037    
      7600   0.001          7.6            300.32652     -24.149652      77.60168      -8175.0146     -8097.4129    
      7700   0.001          7.7            299.99753     -2832.2293      77.516671     -8176.602      -8099.0854    
      7800   0.001          7.8            298.15746      1174.9592      77.041213     -8177.9857     -8100.9445    
      7900   0.001          7.9            295.89975      1868.417       76.457841     -8176.8662     -8100.4083    
      8000   0.001          8              308.20705     -2191.9909      79.637936     -8176.0151     -8096.3771    
      8100   0.001          8.1            302.94621     -344.07952      78.278583     -8174.0906     -8095.812     
      8200   0.001          8.2            304.25741      1394.3703      78.617385     -8176.6285     -8098.0111    
      8300   0.001          8.3            303.8265      -1937.6058      78.506043     -8178.0838     -8099.5777    
      8400   0.001          8.4            296.69806      19.49837       76.664117     -8176.6277     -8099.9636    
      8500   0.001          8.5            297.71242      3944.5754      76.926218     -8176.0123     -8099.0861    
      8600   0.001          8.6            308.87924     -3103.8576      79.811626     -8176.2352     -8096.4235    
      8700   0.001          8.7            315.39148     -2890.4887      81.494328     -8174.1785     -8092.6842    
      8800   0.001          8.8            307.69438      2208.9792      79.505467     -8174.1427     -8094.6372    
      8900   0.001          8.9            299.59129      203.41221      77.411702     -8174.7723     -8097.3606    
      9000   0.001          9              305.65316     -1443.2877      78.978035     -8177.9455     -8098.9675    
      9100   0.001          9.1            297.363        462.29262      76.835931     -8177.1737     -8100.3378    
      9200   0.001          9.2            300.28439      237.632        77.590792     -8177.7101     -8100.1193    
      9300   0.001          9.3            302.44551     -396.23663      78.149208     -8174.8803     -8096.7311    
      9400   0.001          9.4            301.48316     -745.92837      77.900543     -8173.4162     -8095.5156    
      9500   0.001          9.5            306.6465       3609.4286      79.234704     -8176.7607     -8097.526     
      9600   0.001          9.6            300.51182     -1288.1448      77.649558     -8176.5776     -8098.9281    
      9700   0.001          9.7            299.73485     -5005.0182      77.448797     -8176.666      -8099.2172    
      9800   0.001          9.8            302.21902      4013.4301      78.090685     -8177.0327     -8098.942     
      9900   0.001          9.9            298.34824      676.45569      77.090508     -8174.7572     -8097.6667    
     10000   0.001          10             303.84374     -2515.2124      78.510496     -8174.0843     -8095.5738    
     10100   0.001          10.1           301.09831      1129.8876      77.801104     -8173.6268     -8095.8257    
     10200   0.001          10.2           290.03284      571.68662      74.941884     -8174.4589     -8099.517     
     10300   0.001          10.3           299.42906      204.59718      77.369783     -8177.9604     -8100.5906    
     10400   0.001          10.4           305.14865      77.668715      78.847674     -8178.5491     -8099.7014    
     10500   0.001          10.5           296.07637     -1005.559       76.503479     -8174.07       -8097.5665    
     10600   0.001          10.6           304.32922      1241.3874      78.63594      -8174.4244     -8095.7885    
     10700   0.001          10.7           296.79948      535.19863      76.690325     -8175.122      -8098.4317    
     10800   0.001          10.8           299.85734     -1260.3846      77.480448     -8178.9048     -8101.4243    
     10900   0.001          10.9           298.46979     -782.70997      77.121916     -8178.3401     -8101.2182    
     11000   0.001          11             298.86488      712.96083      77.224005     -8175.8054     -8098.5813    
     11100   0.001          11.1           306.73501      42.658772      79.257575     -8176.2961     -8097.0386    
     11200   0.001          11.2           304.97904     -1350.2513      78.803847     -8176.3922     -8097.5884    
     11300   0.001          11.3           299.80085      486.19421      77.465851     -8176.5848     -8099.1189    
     11400   0.001          11.4           298.78694     -1105.2582      77.203864     -8178.8426     -8101.6387    
     11500   0.001          11.5           280.52072      661.49499      72.484038     -8177.7534     -8105.2693    
     11600   0.001          11.6           297.87537      2121.3089      76.968324     -8179.8962     -8102.9279    
     11700   0.001          11.7           298.47219     -1123.4304      77.122535     -8177.0596     -8099.937     
     11800   0.001          11.8           296.01518     -2802.9337      76.487667     -8174.9232     -8098.4355    
     11900   0.001          11.9           308.38242      2785.9753      79.683251     -8176.8057     -8097.1225    
     12000   0.001          12             305.77691     -3136.444       79.010011     -8176.8479     -8097.8379    
     12100   0.001          12.1           290.28235     -1950.4564      75.006355     -8176.1925     -8101.1861    
     12200   0.001          12.2           298.36941      5446.6659      77.09598      -8178.9453     -8101.8493    
     12300   0.001          12.3           294.99808     -1871.4961      76.224859     -8176.3268     -8100.1019    
     12400   0.001          12.4           297.27406     -64.3495        76.812951     -8174.702      -8097.889     
     12500   0.001          12.5           306.78317      2190.4459      79.27002      -8176.9611     -8097.6911    
     12600   0.001          12.6           305.09081     -3516.3731      78.832728     -8177.7307     -8098.898     
     12700   0.001          12.7           296.85621      348.96062      76.704981     -8177.2362     -8100.5312    
     12800   0.001          12.8           287.88128      2205.0021      74.38594      -8176.2962     -8101.9103    
     12900   0.001          12.9           295.05811     -2568.2232      76.240368     -8176.5008     -8100.2604    
     13000   0.001          13             309.08793      979.43197      79.865548     -8176.6924     -8096.8268    
     13100   0.001          13.1           300.21266      263.26156      77.572259     -8174.4967     -8096.9245    
     13200   0.001          13.2           296.67995      534.48642      76.659437     -8175.3737     -8098.7143    
     13300   0.001          13.3           300.34899      1679.2374      77.607486     -8178.4866     -8100.8792    
     13400   0.001          13.4           298.04531     -4202.2349      77.012235     -8177.6387     -8100.6265    
     13500   0.001          13.5           299.63426      272.87743      77.422805     -8177.0805     -8099.6577    
     13600   0.001          13.6           299.52579      3522.8908      77.394778     -8176.1893     -8098.7945    
     13700   0.001          13.7           296.74891     -2969.7434      76.677256     -8175.0707     -8098.3934    
     13800   0.001          13.8           294.90867      2820.4583      76.201755     -8173.9164     -8097.7147    
     13900   0.001          13.9           305.52854      924.14063      78.945835     -8176.4776     -8097.5317    
     14000   0.001          14             290.87809     -2274.7684      75.160288     -8173.9804     -8098.8201    
     14100   0.001          14.1           303.83378      2758.799       78.507922     -8178.7879     -8100.2799    
     14200   0.001          14.2           298.44756      832.16045      77.116172     -8178.1013     -8100.9851    
     14300   0.001          14.3           291.72546     -1064.089       75.379242     -8174.016      -8098.6368    
     14400   0.001          14.4           313.65479      12.618061      81.045583     -8176.9598     -8095.9142    
     14500   0.001          14.5           304.59776     -703.29985      78.70533      -8175.582      -8096.8767    
     14600   0.001          14.6           295.88315      938.81595      76.453551     -8175.4094     -8098.9558    
     14700   0.001          14.7           293.44459      786.04123      75.823449     -8175.5861     -8099.7627    
     14800   0.001          14.8           305.60098     -856.29153      78.964551     -8178.4061     -8099.4415    
     14900   0.001          14.9           296.54297      295.66363      76.624044     -8175.6626     -8099.0385    
     15000   0.001          15             300.30452      1491.5164      77.595995     -8175.6712     -8098.0752    
     15100   0.001          15.1           303.65691     -159.30837      78.462221     -8174.2491     -8095.7869    
     15200   0.001          15.2           313.50683     -1742.1719      81.007352     -8175.173      -8094.1657    
     15300   0.001          15.3           306.99846      863.90689      79.325649     -8176.5506     -8097.2249    
     15400   0.001          15.4           302.64208     -345.30459      78.199999     -8177.4259     -8099.2259    
     15500   0.001          15.5           296.85106     -3711.866       76.703652     -8176.5913     -8099.8877    
     15600   0.001          15.6           303.21051      2436.785       78.346875     -8177.4115     -8099.0646    
     15700   0.001          15.7           304.48127      1522.4949      78.675228     -8174.9357     -8096.2604    
     15800   0.001          15.8           304.78312     -3317.9868      78.753224     -8173.4981     -8094.7449    
     15900   0.001          15.9           302.93554      3422.4361      78.275827     -8175.9767     -8097.7009    
     16000   0.001          16             298.06844      420.51841      77.018211     -8176.9618     -8099.9436    
     16100   0.001          16.1           298.93658     -3626.7002      77.242532     -8176.9674     -8099.7249    
     16200   0.001          16.2           301.73205      1074.6233      77.964856     -8176.5826     -8098.6178    
     16300   0.001          16.3           302.59623      497.69666      78.188152     -8174.9431     -8096.7549    
     16400   0.001          16.4           303.68196     -948.19418      78.468694     -8174.0042     -8095.5355    
     16500   0.001          16.5           302.07138      391.24222      78.052534     -8177.0232     -8098.9707    
     16600   0.001          16.6           291.06963      1833.8001      75.209782     -8176.2267     -8101.0169    
     16700   0.001          16.7           298.81339     -1369.1737      77.2107       -8177.3072     -8100.0965    
     16800   0.001          16.8           299.39217     -1326.4128      77.360252     -8175.5262     -8098.166     
     16900   0.001          16.9           306.45793      3100.2257      79.18598      -8176.0066     -8096.8206    
     17000   0.001          17             302.17437     -2640.045       78.079148     -8176.0626     -8097.9834    
     17100   0.001          17.1           297.54748     -2750.0588      76.883599     -8178.5049     -8101.6213    
     17200   0.001          17.2           292.99014      3371.4149      75.706024     -8177.4106     -8101.7046    
     17300   0.001          17.3           297.77708     -1134.1488      76.942926     -8176.158      -8099.2151    
     17400   0.001          17.4           308.04264     -1345.863       79.595455     -8176.8499     -8097.2545    
     17500   0.001          17.5           298.97959      1121.7311      77.253645     -8174.9168     -8097.6632    
     17600   0.001          17.6           298.6166       2088.1         77.159851     -8175.8328     -8098.6729    
     17700   0.001          17.7           297.68928     -422.64997      76.92024      -8176.4725     -8099.5522    
     17800   0.001          17.8           294.61031     -423.27018      76.124661     -8176.3725     -8100.2478    
     17900   0.001          17.9           299.42053      436.29151      77.367578     -8179.5882     -8102.2206    
     18000   0.001          18             294.44768     -929.24655      76.082639     -8177.882      -8101.7993    
     18100   0.001          18.1           290.97926      2119.9117      75.186429     -8174.1001     -8098.9137    
     18200   0.001          18.2           306.69064      1173.1987      79.246111     -8176.1931     -8096.947     
     18300   0.001          18.3           297.52463     -2066.2041      76.877695     -8174.5013     -8097.6236    
     18400   0.001          18.4           299.9402       418.7084       77.501856     -8177.6472     -8100.1453    
     18500   0.001          18.5           296.87809      693.07423      76.710635     -8179.2079     -8102.4973    
     18600   0.001          18.6           290.79336     -1723.2902      75.138395     -8176.7249     -8101.5865    
     18700   0.001          18.7           300.06011      2131.6636      77.532841     -8177.5731     -8100.0402    
     18800   0.001          18.8           301.81387     -567.69873      77.985996     -8176.6479     -8098.6619    
     18900   0.001          18.9           295.65265     -1427.455       76.393993     -8173.8974     -8097.5034    
     19000   0.001          19             305.60315      2492.3649      78.965112     -8175.5546     -8096.5895    
     19100   0.001          19.1           302.98812      106.14627      78.289413     -8176.0405     -8097.7511    
     19200   0.001          19.2           294.95294     -1870.0863      76.213193     -8176.8885     -8100.6753    
     19300   0.001          19.3           301.17907      1161.848       77.821969     -8178.8994     -8101.0774    
     19400   0.001          19.4           298.9451      -5.8912371      77.244733     -8176.437      -8099.1923    
     19500   0.001          19.5           307.56573     -1170.3502      79.472225     -8175.7881     -8096.3159    
     19600   0.001          19.6           302.92954      1590.5622      78.274275     -8174.9967     -8096.7224    
     19700   0.001          19.7           299.90561     -613.91236      77.492919     -8175.6243     -8098.1314    
     19800   0.001          19.8           300.62525     -1303.8635      77.678868     -8177.0569     -8099.378     
     19900   0.001          19.9           291.63111      2316.126       75.354862     -8174.9229     -8099.568     
     20000   0.001          20             300.86678     -940.17708      77.741277     -8176.5421     -8098.8008    
     20100   0.001          20.1           307.69268      453.97138      79.505029     -8175.2693     -8095.7643    
     20200   0.001          20.2           317.83337      282.41763      82.125292     -8175.3371     -8093.2118    
     20300   0.001          20.3           298.72979     -2262.9303      77.189098     -8173.4516     -8096.2625    
     20400   0.001          20.4           303.31566      2393.5765      78.374046     -8176.9523     -8098.5783    
     20500   0.001          20.5           291.20846      1627.9416      75.245653     -8175.2061     -8099.9605    
     20600   0.001          20.6           289.84014     -2010.6207      74.892093     -8174.9415     -8100.0494    
     20700   0.001          20.7           307.90672      1367.0756      79.560334     -8177.5127     -8097.9524    
     20800   0.001          20.8           304.78317     -612.9812       78.753238     -8174.1295     -8095.3763    
     20900   0.001          20.9           299.49701     -399.84152      77.38734      -8173.392      -8096.0047    
     21000   0.001          21             294.20108      4030.1389      76.018919     -8175.0727     -8099.0538    
     21100   0.001          21.1           299.7544      -3359.0641      77.453849     -8177.0876     -8099.6337    
     21200   0.001          21.2           302.73069     -2256.9114      78.222895     -8177.2464     -8099.0235    
     21300   0.001          21.3           303.82645      3524.0326      78.50603      -8176.4441     -8097.9381    
     21400   0.001          21.4           306.70247     -2223.3101      79.249167     -8175.7975     -8096.5484    
     21500   0.001          21.5           308.00207      1007.8444      79.584973     -8174.9894     -8095.4045    
     21600   0.001          21.6           299.4401       1462.1802      77.372636     -8175.2779     -8097.9053    
     21700   0.001          21.7           300.87515     -2530.0666      77.743439     -8178.3331     -8100.5897    
     21800   0.001          21.8           298.73597      1993.254       77.190695     -8177.3456     -8100.1549    
     21900   0.001          21.9           299.86503     -163.38296      77.482435     -8175.8779     -8098.3955    
     22000   0.001          22             307.03485     -922.69528      79.335051     -8175.4513     -8096.1162    
     22100   0.001          22.1           304.03435      3482.7367      78.55975      -8174.0018     -8095.442     
     22200   0.001          22.2           295.01961     -683.84029      76.230421     -8175.1972     -8098.9667    
     22300   0.001          22.3           298.27673     -1569.8104      77.072032     -8178.1797     -8101.1077    
     22400   0.001          22.4           294.15373      3115.9289      76.006686     -8176.6891     -8100.6824    
     22500   0.001          22.5           299.13404     -397.56597      77.293553     -8175.4565     -8098.163     
     22600   0.001          22.6           309.55341     -1945.6617      79.985824     -8176.4959     -8096.5101    
     22700   0.001          22.7           301.51987      2094.6737      77.910031     -8175.5154     -8097.6054    
     22800   0.001          22.8           296.987        361.11651      76.738777     -8175.7701     -8099.0313    
     22900   0.001          22.9           302.77792     -1967.6341      78.235099     -8177.354      -8099.1189    
     23000   0.001          23             295.93373      1245.2122      76.46662      -8175.5661     -8099.0994    
     23100   0.001          23.1           302.23153      720.98269      78.093917     -8176.7488     -8098.6548    
     23200   0.001          23.2           297.89836      1046.6983      76.974265     -8174.2416     -8097.2674    
     23300   0.001          23.3           301.31745     -473.50956      77.857726     -8173.8331     -8095.9754    
     23400   0.001          23.4           311.98093     -1106.4591      80.613074     -8177.8307     -8097.2177    
     23500   0.001          23.5           295.07904      1059.1608      76.245778     -8176.879      -8100.6333    
     23600   0.001          23.6           293.04578     -430.96183      75.720402     -8176.6208     -8100.9004    
     23700   0.001          23.7           300.11862      795.25567      77.54796      -8176.6525     -8099.1046    
     23800   0.001          23.8           298.22736      924.5675       77.059275     -8174.1292     -8097.0699    
     23900   0.001          23.9           309.37646      1108.3486      79.940102     -8175.5251     -8095.585     
     24000   0.001          24             306.34172     -3758.7576      79.155953     -8175.7218     -8096.5659    
     24100   0.001          24.1           297.9663       2549.7403      76.991818     -8176.8869     -8099.8951    
     24200   0.001          24.2           297.26323      1619.266       76.810152     -8177.8174     -8101.0073    
     24300   0.001          24.3           287.04249     -3708.3748      74.169204     -8174.1381     -8099.9689    
     24400   0.001          24.4           307.23836      2489.7629      79.387637     -8176.5815     -8097.1939    
     24500   0.001          24.5           299.78465      1024.2217      77.461664     -8174.1298     -8096.6682    
     24600   0.001          24.6           299.12784     -4425.5864      77.291952     -8175.789      -8098.497     
     24700   0.001          24.7           291.34455      3990.9441      75.280817     -8176.9682     -8101.6874    
     24800   0.001          24.8           295.92069     -1244.859       76.463253     -8177.4945     -8101.0312    
     24900   0.001          24.9           301.62907     -3673.6173      77.938246     -8176.9979     -8099.0596    
     25000   0.001          25             306.28575      4128.4113      79.14149      -8176.4135     -8097.272     
     25100   0.001          25.1           297.60784     -2222.6849      76.899197     -8174.1863     -8097.2871    
     25200   0.001          25.2           295.51923     -2180.9541      76.359519     -8176.0135     -8099.654     
     25300   0.001          25.3           295.01283      5342.9673      76.228669     -8178.4309     -8102.2022    
     25400   0.001          25.4           291.51213     -1583.0714      75.324119     -8176.5203     -8101.1961    
     25500   0.001          25.5           305.8663      -871.02806      79.033109     -8177.3248     -8098.2917    
     25600   0.001          25.6           305.5576      -112.17083      78.953343     -8176.5686     -8097.6153    
     25700   0.001          25.7           301.33535     -2078.1566      77.862352     -8176.2577     -8098.3953    
     25800   0.001          25.8           302.72225      1601.1224      78.220715     -8178.2946     -8100.0739    
     25900   0.001          25.9           286.96811     -1655.7178      74.149987     -8177.7965     -8103.6465    
     26000   0.001          26             288.03654      1610.0291      74.426059     -8177.5841     -8103.1581    
     26100   0.001          26.1           294.78613      2092.2083      76.170092     -8176.226      -8100.0559    
     26200   0.001          26.2           300.79284     -2524.8782      77.722172     -8176.4763     -8098.7541    
     26300   0.001          26.3           304.45442     -538.69225      78.668291     -8176.6114     -8097.9431    
     26400   0.001          26.4           298.7061       1194.2916      77.182976     -8175.6257     -8098.4427    
     26500   0.001          26.5           296.29997     -732.04732      76.561254     -8176.6921     -8100.1309    
     26600   0.001          26.6           295.96709      1051.1319      76.475241     -8178.2567     -8101.7815    
     26700   0.001          26.7           292.64543     -357.42503      75.616955     -8176.6947     -8101.0777    
     26800   0.001          26.8           302.40611     -557.60483      78.139026     -8175.6125     -8097.4735    
     26900   0.001          26.9           304.9203       1130.3882      78.78867      -8175.5898     -8096.8012    
     27000   0.001          27             302.8543       448.84394      78.254836     -8176.4701     -8098.2153    
     27100   0.001          27.1           290.90237      558.29309      75.166562     -8175.8477     -8100.6812    
     27200   0.001          27.2           291.23205      1355.028       75.251749     -8176.1263     -8100.8745    
     27300   0.001          27.3           305.9827      -24.521297      79.063186     -8179.0025     -8099.9394    
     27400   0.001          27.4           298.98564      13.176776      77.255206     -8176.3581     -8099.1029    
     27500   0.001          27.5           299.99916      1235.5617      77.517092     -8175.4233     -8097.9062    
     27600   0.001          27.6           300.88989     -736.72416      77.74725      -8174.9164     -8097.1692    
     27700   0.001          27.7           300.48447      419.94336      77.642493     -8174.8033     -8097.1608    
     27800   0.001          27.8           294.51292      1837.1818      76.099497     -8175.5378     -8099.4383    
     27900   0.001          27.9           297.05989     -1363.664       76.757611     -8177.8741     -8101.1165    
     28000   0.001          28             300.79313     -320.37737      77.722246     -8178.5854     -8100.8631    
     28100   0.001          28.1           307.61972     -1379.1675      79.486177     -8176.4848     -8096.9986    
     28200   0.001          28.2           304.9918       775.10016      78.807146     -8175.2593     -8096.4522    
     28300   0.001          28.3           309.35165     -336.00265      79.93369      -8177.7449     -8097.8112    
     28400   0.001          28.4           292.78166     -1389.3368      75.652154     -8175.6266     -8099.9744    
     28500   0.001          28.5           293.76847      1543.5615      75.907139     -8175.9341     -8100.0269    
     28600   0.001          28.6           292.65307      1167.5807      75.618928     -8174.8898     -8099.2709    
     28700   0.001          28.7           304.00279      482.53764      78.551594     -8177.2338     -8098.6822    
     28800   0.001          28.8           295.79615      1459.8515      76.431072     -8175.1691     -8098.7381    
     28900   0.001          28.9           296.47876     -391.71711      76.607452     -8175.659      -8099.0516    
     29000   0.001          29             295.79533      431.10854      76.43086      -8176.0184     -8099.5876    
     29100   0.001          29.1           295.42074     -501.42584      76.33407      -8176.7718     -8100.4378    
     29200   0.001          29.2           299.68159     -1318.4875      77.435034     -8177.7963     -8100.3613    
     29300   0.001          29.3           305.07235      208.71699      78.827958     -8177.1529     -8098.3249    
     29400   0.001          29.4           299.91709      678.93516      77.495886     -8173.8662     -8096.3703    
     29500   0.001          29.5           298.63751      1663.018       77.165254     -8174.1956     -8097.0304    
     29600   0.001          29.6           300.91496     -1742.2135      77.753726     -8178.4026     -8100.6488    
     29700   0.001          29.7           296.99199     -790.18941      76.740067     -8178.3869     -8101.6468    
     29800   0.001          29.8           297.05061      3132.8333      76.755212     -8176.8234     -8100.0682    
     29900   0.001          29.9           294.54259     -927.6536       76.107162     -8174.5057     -8098.3985    
     30000   0.001          30             304.94586     -1561.881       78.795274     -8175.6667     -8096.8714    
     30100   0.001          30.1           301.99541     -75.914255      78.032906     -8175.5466     -8097.5137    
     30200   0.001          30.2           290.97016      938.44302      75.18408      -8176.8565     -8101.6724    
     30300   0.001          30.3           286.77445      2926.9136      74.099945     -8176.3982     -8102.2983    
     30400   0.001          30.4           293.88059     -3066.4232      75.936108     -8175.6546     -8099.7185    
     30500   0.001          30.5           302.74147     -1171.1532      78.225679     -8175.9351     -8097.7095    
     30600   0.001          30.6           300.00839      3639.4711      77.519478     -8174.886      -8097.3666    
     30700   0.001          30.7           298.47039     -2438.56        77.122072     -8176.2175     -8099.0954    
     30800   0.001          30.8           300.93931      498.29404      77.760019     -8179.1226     -8101.3626    
     30900   0.001          30.9           287.1113       45.286761      74.186983     -8178.8078     -8104.6208    
     31000   0.001          31             294.63869     -1715.5485      76.131995     -8178.9866     -8102.8546    
     31100   0.001          31.1           303.9485       2041.5391      78.537565     -8179.188      -8100.6504    
     31200   0.001          31.2           299.24203     -3669.5093      77.321455     -8176.2598     -8098.9383    
     31300   0.001          31.3           300.6825       299.02394      77.693661     -8175.1482     -8097.4546    
     31400   0.001          31.4           312.15051      2409.3654      80.656892     -8177.3029     -8096.646     
     31500   0.001          31.5           299.6035      -4736.9885      77.414857     -8176.2635     -8098.8486    
     31600   0.001          31.6           295.81622      1101.7884      76.436258     -8177.8176     -8101.3813    
     31700   0.001          31.7           295.44486      841.55676      76.340302     -8177.6265     -8101.2862    
     31800   0.001          31.8           297.771       -2267.0604      76.941354     -8175.9077     -8098.9664    
     31900   0.001          31.9           295.70855      4253.5404      76.408438     -8174.5191     -8098.1106    
     32000   0.001          32             307.12084     -1659.7093      79.35727      -8177.4876     -8098.1303    
     32100   0.001          32.1           295.62906     -2283.2764      76.387898     -8175.4189     -8099.031     
     32200   0.001          32.2           298.93592      2643.7742      77.24236      -8177.756      -8100.5137    
     32300   0.001          32.3           294.89929     -1952.5443      76.19933      -8178.9751     -8102.7757    
     32400   0.001          32.4           297.21614     -1107.1546      76.797984     -8179.4686     -8102.6706    
     32500   0.001          32.5           297.96289      1483.5672      76.990939     -8175.6952     -8098.7043    
     32600   0.001          32.6           311.65303     -2458.7335      80.528347     -8177.8748     -8097.3465    
     32700   0.001          32.7           304.06958      17.874516      78.568852     -8175.9117     -8097.3429    
     32800   0.001          32.8           291.79734      1812.4379      75.397816     -8174.985      -8099.5872    
     32900   0.001          32.9           295.51697      48.364565      76.358935     -8177.8901     -8101.5311    
     33000   0.001          33             294.81485     -38.258117      76.177512     -8177.3602     -8101.1827    
     33100   0.001          33.1           307.70753      223.6267       79.508866     -8176.0463     -8096.5375    
     33200   0.001          33.2           301.71604      274.37249      77.960719     -8174.3411     -8096.3804    
     33300   0.001          33.3           294.22467      606.77893      76.025016     -8174.5879     -8098.5629    
     33400   0.001          33.4           300.75972      1848.3431      77.713613     -8177.935      -8100.2214    
     33500   0.001          33.5           296.9186      -1284.9297      76.721103     -8177.012      -8100.2909    
     33600   0.001          33.6           298.33575     -2516.1439      77.087282     -8174.3141     -8097.2268    
     33700   0.001          33.7           309.06662      4824.2175      79.860043     -8174.3787     -8094.5186    
     33800   0.001          33.8           300.63075     -1738.966       77.680289     -8174.2189     -8096.5386    
     33900   0.001          33.9           301.95203     -25.818943      78.021696     -8176.6571     -8098.6354    
     34000   0.001          34             306.73676      2431.1999      79.258027     -8178.7108     -8099.4528    
     34100   0.001          34.1           296.86432     -3789.7042      76.707078     -8176.4987     -8099.7916    
     34200   0.001          34.2           301.11481      2959.9463      77.805366     -8174.9985     -8097.1932    
     34300   0.001          34.3           303.64888      1366.6062      78.460146     -8172.7453     -8094.2852    
     34400   0.001          34.4           309.90558     -4130.2565      80.076822     -8176.0651     -8095.9883    
     34500   0.001          34.5           301.89081      3020.8638      78.005877     -8176.4491     -8098.4432    
     34600   0.001          34.6           292.99409      973.54922      75.707045     -8175.1091     -8099.402     
     34700   0.001          34.7           306.66819     -3377.048       79.24031      -8178.3025     -8099.0622    
     34800   0.001          34.8           299.6804       1271.4274      77.434728     -8175.6676     -8098.2329    
     34900   0.001          34.9           304.6062       187.80518      78.707511     -8174.9406     -8096.2331    
     35000   0.001          35             312.9513       288.65124      80.863809     -8176.2501     -8095.3863    
     35100   0.001          35.1           294.39893     -1010.4718      76.070042     -8174.6543     -8098.5843    
     35200   0.001          35.2           296.77191      1490.1846      76.683199     -8177.2471     -8100.5639    
     35300   0.001          35.3           297.92958      2987.1604      76.982332     -8177.1626     -8100.1802    
     35400   0.001          35.4           299.42883     -2248.8746      77.369724     -8175.7768     -8098.4071    
     35500   0.001          35.5           303.19994      188.46869      78.344145     -8175.1493     -8096.8051    
     35600   0.001          35.6           299.69739      1368.9468      77.439117     -8175.0422     -8097.6031    
     35700   0.001          35.7           294.79729     -1829.6492      76.172975     -8177.6921     -8101.5191    
     35800   0.001          35.8           290.01203      1899.9992      74.936506     -8176.712      -8101.7755    
     35900   0.001          35.9           297.77226      1895.5871      76.941681     -8176.0224     -8099.0807    
     36000   0.001          36             300.76973     -1476.7316      77.716201     -8174.9416     -8097.2254    
     36100   0.001          36.1           300.94238     -301.44068      77.760811     -8175.3936     -8097.6328    
     36200   0.001          36.2           296.34631      255.04523      76.573228     -8176.6229     -8100.0497    
     36300   0.001          36.3           296.26953      859.1912       76.553388     -8178.4833     -8101.93      
     36400   0.001          36.4           288.99845     -892.6402       74.674608     -8178.9064     -8104.2318    
     36500   0.001          36.5           287.23659      1240.5351      74.219357     -8178.0826     -8103.8633    
     36600   0.001          36.6           299.02494      2607.8244      77.265363     -8177.0708     -8099.8055    
     36700   0.001          36.7           303.10198     -844.69027      78.318833     -8176.3109     -8097.9921    
     36800   0.001          36.8           303.37472     -680.23717      78.389307     -8175.575      -8097.1857    
     36900   0.001          36.9           303.04123      696.35402      78.303137     -8175.9914     -8097.6883    
     37000   0.001          37             296.38205      685.07876      76.582462     -8177.2104     -8100.6279    
     37100   0.001          37.1           291.33603     -1200.1112      75.278617     -8177.1044     -8101.8258    
     37200   0.001          37.2           300.97039      88.941577      77.768049     -8177.7663     -8099.9982    
     37300   0.001          37.3           300.92201      1122.6725      77.755548     -8175.8939     -8098.1384    
     37400   0.001          37.4           298.94658     -917.43113      77.245116     -8175.4103     -8098.1651    
     37500   0.001          37.5           301.59589     -1149.231       77.929671     -8176.6524     -8098.7227    
     37600   0.001          37.6           295.93065      2812.495       76.465826     -8176.0373     -8099.5714    
     37700   0.001          37.7           300.69257     -1011.516       77.696262     -8178.7703     -8101.074     
     37800   0.001          37.8           295.81127     -995.86798      76.434979     -8178.2497     -8101.8148    
     37900   0.001          37.9           300.98672      3089.8626      77.77227      -8176.853      -8099.0808    
     38000   0.001          38             301.93976     -2168.3168      78.018524     -8174.9967     -8096.9782    
     38100   0.001          38.1           301.04723     -1282.8014      77.787904     -8175.1684     -8097.3805    
     38200   0.001          38.2           303.93742      3853.6893      78.534704     -8177.487      -8098.9523    
     38300   0.001          38.3           291.90215     -2879.9625      75.424897     -8177.9481     -8102.5232    
     38400   0.001          38.4           291.51188     -2290.3128      75.324054     -8178.3859     -8103.0618    
     38500   0.001          38.5           301.53006      3094.0748      77.912664     -8178.031      -8100.1184    
     38600   0.001          38.6           297.92498     -1011.5573      76.981143     -8176.1005     -8099.1194    
     38700   0.001          38.7           299.097       -1085.6152      77.283981     -8175.2594     -8097.9754    
     38800   0.001          38.8           304.23618      2926.7214      78.611899     -8176.0846     -8097.4727    
     38900   0.001          38.9           300.40249     -2463.9141      77.621309     -8176.2394     -8098.6181    
     39000   0.001          39             293.61298      643.99942      75.86696      -8176.7568     -8100.8898    
     39100   0.001          39.1           298.03938      1972.6513      77.010703     -8178.5522     -8101.5415    
     39200   0.001          39.2           297.99206     -2024.4882      76.998475     -8175.3818     -8098.3833    
     39300   0.001          39.3           303.90052     -1568.1709      78.525167     -8174.5065     -8095.9814    
     39400   0.001          39.4           311.26713     -233.91705      80.428634     -8177.4361     -8097.0075    
     39500   0.001          39.5           304.50824      766.81069      78.682198     -8177.9019     -8099.2197    
     39600   0.001          39.6           295.44543     -743.29676      76.34045      -8176.7092     -8100.3687    
     39700   0.001          39.7           298.45848     -566.34265      77.118995     -8176.9614     -8099.8424    
     39800   0.001          39.8           300.92693      1075.9913      77.75682      -8176.8937     -8099.1369    
     39900   0.001          39.9           296.76568      1168.301       76.681589     -8175.6396     -8098.958     
     40000   0.001          40             300.73075      70.57713       77.706128     -8176.0829     -8098.3768    
     40100   0.001          40.1           294.9235      -1379.4099      76.205587     -8174.576      -8098.3704    
     40200   0.001          40.2           308.91569     -750.01991      79.821043     -8179.3459     -8099.5249    
     40300   0.001          40.3           294.30652     -807.8776       76.046165     -8177.2654     -8101.2192    
     40400   0.001          40.4           299.55631      883.54494      77.402663     -8177.5633     -8100.1606    
     40500   0.001          40.5           305.4773       154.61151      78.932594     -8176.1511     -8097.2185    
     40600   0.001          40.6           301.06698     -3488.5516      77.793007     -8174.1713     -8096.3783    
     40700   0.001          40.7           303.8022       3211.6055      78.499764     -8175.7176     -8097.2178    
     40800   0.001          40.8           298.15838      961.96738      77.041451     -8176.3025     -8099.261     
     40900   0.001          40.9           294.61666     -2467.2853      76.126303     -8175.7057     -8099.5794    
     41000   0.001          41             305.00432      2776.1515      78.810381     -8177.6534     -8098.8431    
     41100   0.001          41.1           297.07194     -2366.6407      76.760724     -8174.879      -8098.1182    
     41200   0.001          41.2           304.82793     -1232.6461      78.764803     -8175.6119     -8096.847     
     41300   0.001          41.3           310.87245      3643.1066      80.326651     -8176.7748     -8096.4481    
     41400   0.001          41.4           296.47706     -3805.495       76.607013     -8175.3972     -8098.7901    
     41500   0.001          41.5           297.48194     -1524.1044      76.866664     -8177.7666     -8100.9       
     41600   0.001          41.6           297.45066      2950.1856      76.858582     -8177.5547     -8100.6961    
     41700   0.001          41.7           298.19798     -2076.1126      77.051684     -8174.6931     -8097.6414    
     41800   0.001          41.8           308.6082       1538.5863      79.74159      -8175.5917     -8095.8501    
     41900   0.001          41.9           303.66664      1541.9027      78.464736     -8175.2349     -8096.7702    
     42000   0.001          42             294.79578     -3712.555       76.172584     -8175.1945     -8099.0219    
     42100   0.001          42.1           298.30064      1890.0736      77.07821      -8177.0087     -8099.9305    
     42200   0.001          42.2           303.66453      474.03092      78.46419      -8177.9041     -8099.44      
     42300   0.001          42.3           308.51933     -3636.5986      79.718626     -8175.5527     -8095.8341    
     42400   0.001          42.4           307.91836      698.29763      79.563342     -8173.5983     -8094.035     
     42500   0.001          42.5           304.99374      1684.2848      78.807646     -8175.267      -8096.4594    
     42600   0.001          42.6           297.82388     -1804.4582      76.95502      -8175.5368     -8098.5818    
     42700   0.001          42.7           303.28072     -126.73181      78.365017     -8177.8514     -8099.4863    
     42800   0.001          42.8           298.24946      2178.4077      77.064985     -8177.018      -8099.953     
     42900   0.001          42.9           304.46458     -2173.6095      78.670917     -8177.125      -8098.4541    
     43000   0.001          43             307.20836     -465.66916      79.379884     -8174.7294     -8095.3495    
     43100   0.001          43.1           305.4513       2519.2632      78.925876     -8174.7422     -8095.8163    
     43200   0.001          43.2           307.11756     -2474.7689      79.356422     -8178.0656     -8098.7092    
     43300   0.001          43.3           298.24064     -1789.6394      77.062706     -8176.732      -8099.6693    
     43400   0.001          43.4           301.15277      2641.1284      77.815174     -8176.8234     -8099.0082    
     43500   0.001          43.5           299.44474     -2186.4548      77.373834     -8175.6988     -8098.325     
     43600   0.001          43.6           302.63092     -480.36105      78.197116     -8174.7577     -8096.5605    
     43700   0.001          43.7           308.19167      1776.8038      79.633963     -8174.4927     -8094.8587    
     43800   0.001          43.8           299.05483     -290.41542      77.273085     -8174.4774     -8097.2043    
     43900   0.001          43.9           297.00854     -1333.4937      76.744342     -8176.6304     -8099.886     
     44000   0.001          44             297.77525      1639.004       76.942454     -8177.0905     -8100.1481    
     44100   0.001          44.1           297.97516      1098.8974      76.994109     -8175.9645     -8098.9704    
     44200   0.001          44.2           306.42337     -3188.1142      79.17705      -8175.2082     -8096.0311    
     44300   0.001          44.3           311.79821      924.12142      80.565862     -8175.652      -8095.0861    
     44400   0.001          44.4           298.45677      1206.9696      77.118552     -8176.4406     -8099.322     
     44500   0.001          44.5           294.1361      -1036.0714      76.002131     -8177.2178     -8101.2157    
     44600   0.001          44.6           304.76939      735.27468      78.749677     -8178.9594     -8100.2098    
     44700   0.001          44.7           295.64803      2083.3717      76.392799     -8174.1976     -8097.8048    
     44800   0.001          44.8           300.66938     -1277.0867      77.690271     -8174.1751     -8096.4848    
     44900   0.001          44.9           306.14132     -1056.4741      79.104172     -8176.6366     -8097.5324    
     45000   0.001          45             292.53936      908.34619      75.589546     -8176.0928     -8100.5033    
     45100   0.001          45.1           294.79122      314.11673      76.171408     -8178.3457     -8102.1743    
     45200   0.001          45.2           298.57783     -1454.76        77.149833     -8178.566      -8101.4161    
     45300   0.001          45.3           303.42774      1807.8984      78.403007     -8177.9208     -8099.5178    
     45400   0.001          45.4           300.12562      734.27905      77.549769     -8175.0097     -8097.46      
     45500   0.001          45.5           309.88095     -4493.6384      80.070457     -8176.3982     -8096.3277    
     45600   0.001          45.6           294.12785      2425.9509      75.999998     -8174.0646     -8098.0646    
     45700   0.001          45.7           301.97833      3194.6855      78.028492     -8179.1517     -8101.1232    
     45800   0.001          45.8           294.86771     -4294.4078      76.191171     -8177.3431     -8101.1519    
     45900   0.001          45.9           293.50324      1876.598       75.838604     -8175.4761     -8099.6375    
     46000   0.001          46             299.51546      4037.8586      77.392109     -8175.8617     -8098.4696    
     46100   0.001          46.1           296.49832     -3890.0556      76.612506     -8174.7329     -8098.1204    
     46200   0.001          46.2           298.96383      1506.8738      77.249571     -8175.4698     -8098.2202    
     46300   0.001          46.3           308.90163      1743.9069      79.81741      -8179.6704     -8099.853     
     46400   0.001          46.4           287.31371     -4058.5542      74.239285     -8177.1747     -8102.9354    
     46500   0.001          46.5           293.8404       1394.7306      75.925724     -8177.4311     -8101.5054    
     46600   0.001          46.6           302.54366      1863.9601      78.174567     -8176.6417     -8098.4671    
     46700   0.001          46.7           298.3238      -1670.992       77.084193     -8174.8707     -8097.7865    
     46800   0.001          46.8           300.60046     -1233.7571      77.672461     -8175.8318     -8098.1593    
     46900   0.001          46.9           298.63751      1031.1262      77.165254     -8176.9509     -8099.7857    
     47000   0.001          47             291.71435     -414.13955      75.376371     -8178.1611     -8102.7847    
     47100   0.001          47.1           301.73358     -2801.8213      77.965251     -8180.5397     -8102.5745    
     47200   0.001          47.2           298.79475      1655.3277      77.205883     -8176.0681     -8098.8623    
     47300   0.001          47.3           301.16516      965.06615      77.818376     -8176.1248     -8098.3065    
     47400   0.001          47.4           298.5385      -1875.3178      77.139672     -8175.602      -8098.4623    
     47500   0.001          47.5           304.86955     -346.78473      78.775556     -8177.6895     -8098.9139    
     47600   0.001          47.6           299.6393       820.24878      77.424108     -8177.625      -8100.2009    
     47700   0.001          47.7           292.09946     -559.82131      75.475879     -8176.6435     -8101.1677    
     47800   0.001          47.8           292.42051      971.79715      75.558835     -8175.5807     -8100.0219    
     47900   0.001          47.9           315.44824     -151.60446      81.508995     -8178.1965     -8096.6875    
     48000   0.001          48             297.62946     -2936.4283      76.904782     -8173.6271     -8096.7223    
     48100   0.001          48.1           297.09984      1527.2728      76.767934     -8175.2635     -8098.4956    
     48200   0.001          48.2           295.97401      3394.5282      76.47703      -8176.9382     -8100.4612    
     48300   0.001          48.3           286.40553     -3421.4288      74.00462      -8176.3384     -8102.3337    
     48400   0.001          48.4           291.68154     -257.83555      75.367893     -8180.2095     -8104.8416    
     48500   0.001          48.5           293.90429      2840.6901      75.942232     -8178.7668     -8102.8246    
     48600   0.001          48.6           295.43227     -1522.1232      76.337049     -8176.0116     -8099.6745    
     48700   0.001          48.7           303.64854     -299.06716      78.460058     -8176.3802     -8097.9201    
     48800   0.001          48.8           310.28812     -70.583975      80.175666     -8177.3511     -8097.1755    
     48900   0.001          48.9           306.50027     -1407.542       79.196921     -8176.8444     -8097.6475    
     49000   0.001          49             292.11284      1325.6882      75.479338     -8176.2871     -8100.8077    
     49100   0.001          49.1           295.42539     -716.79945      76.335271     -8178.0643     -8101.729     
     49200   0.001          49.2           296.27318     -3051.4128      76.554331     -8176.7409     -8100.1866    
     49300   0.001          49.3           299.5594       3357.604       77.403463     -8174.5702     -8097.1667    
     49400   0.001          49.4           304.40676     -1287.9742      78.655975     -8175.7365     -8097.0805    
     49500   0.001          49.5           296.20841     -895.40829      76.537597     -8175.0567     -8098.5192    
     49600   0.001          49.6           295.87056      3464.8148      76.450299     -8176.5775     -8100.1272    
     49700   0.001          49.7           294.15981     -2015.127       76.008257     -8177.2782     -8101.2699    
     49800   0.001          49.8           299.21686     -2392.6758      77.314953     -8177.8385     -8100.5235    
     49900   0.001          49.9           303.60651      3728.2187      78.449199     -8175.8347     -8097.3855    
     50000   0.001          50             306.67276     -990.29433      79.241492     -8175.4749     -8096.2334    
Loop time of 93.5895 on 2 procs for 50000 steps with 2000 atoms

Performance: 46.159 ns/day, 0.520 hours/ns, 534.248 timesteps/s, 1.068 Matom-step/s
40.7% CPU use with 2 MPI tasks x 1 OpenMP threads

MPI task timing breakdown:
Section |  min time  |  avg time  |  max time  |%varavg| %total
---------------------------------------------------------------
Pair    | 85.844     | 86.873     | 87.901     |  11.0 | 92.82
Neigh   | 0.001485   | 0.001506   | 0.001527   |   0.1 |  0.00
Comm    | 2.1966     | 3.2248     | 4.2529     |  57.3 |  3.45
Output  | 0.67303    | 0.68933    | 0.70563    |   2.0 |  0.74
Modify  | 2.3646     | 2.3941     | 2.4236     |   1.9 |  2.56
Other   |            | 0.4069     |            |       |  0.43

Nlocal:           1000 ave        1007 max         993 min
Histogram: 1 0 0 0 0 0 0 0 0 1
Nghost:           4066 ave        4073 max        4059 min
Histogram: 1 0 0 0 0 0 0 0 0 1
Neighs:          83545 ave       85210 max       81880 min
Histogram: 1 0 0 0 0 0 0 0 0 1
FullNghs:       166983 ave      168105 max      165861 min
Histogram: 1 0 0 0 0 0 0 0 0 1

Total # of neighbors = 333966
Ave neighs/atom = 166.983
Neighbor list builds = 1
Dangerous builds = 0
unfix 1
undump 1

# Store final cell length for strain calculations
variable tmp equal "lz"
variable L0 equal ${tmp}
variable L0 equal 56.452883741611

print "System Thermalised"
System Thermalised

reset_timestep 0

# fix 1 all nph temp 300 300 10 x 0 0 1 y 0 0 1 drag 1 # apply the NPH ensemble to control the system's temperature at 300 K and pressure in the x and y directions with a relaxation time of 1 timestep, while also applying a drag coefficient of 1 for viscous damping

fix 2 all langevin 300 300 10 123456 # Apply the Langevin thermostat for constant temperature during deformation

fix 3 all deform 1 z erate 1e-3 units box # applies a deformation fix to the system, deforming the simulation box along the x-axis at a strain rate of ${srate1} (which is a variable), using box units for the deformation and remapping the atom positions in the x-direction to reflect the deformation.

# Calculate the strain in the z-direction based on the initial and current box lengths (Lz) for the units "metal"
variable strain equal "(lz - v_L0)/v_L0"

# Assign the variable p1 to the value of the strain variable calculated above
variable p1 equal "v_strain"

# Assign p2, p3, and p4 to the negative values of the stress components (pxx, pyy, pzz) divided by 10000 to convert to appropriate units
variable p2 equal "-pxx/10000"
variable p3 equal "-pyy/10000"
variable p4 equal "-pzz/10000"

# Print the strain and stress components (p1, p2, p3, p4) to a file every 100 timesteps
# The output is written to the file "Fe_single_crystal_strain_stress_output.txt" and not to the screen
fix def1 all print 250 "${p1} ${p2} ${p3} ${p4}" file stress_strain.txt screen no

# Store the boxlength as variables
variable box_step equal "step"
variable box_x equal "lx"
variable box_y equal "ly"
variable box_z equal "lz"

# Print the box size as to a file "box_size"
fix def2 all print 250 "${box_step} ${box_x} ${box_y} ${box_z}" file box_info.txt screen no

# Dump files
dump 1 all custom 250 dump/dumpFile.* id type x y z vx vy vz c_csym c_peratom fx fy fz # Dump atomic data (ID, type, positions, velocities, stress, and forces) every 250 timesteps into files named dumpFile.* in the dump folder.

# Display thermo
thermo  250
thermo_style custom step v_strain temp v_p2 v_p3 v_p4 ke pe press

run 200000 # Run for 2000000 iterations
WARNING: No fixes with time integration, atoms won't move (src/verlet.cpp:60)
Per MPI rank memory allocation (min/avg/max) = 4.861 | 4.861 | 4.861 Mbytes
   Step        v_strain         Temp           v_p2           v_p3           v_p4          KinEng         PotEng         Press     
         0   1.2586474e-16  306.67276      0.11452947     0.068003984    0.11455484     79.241492     -8175.4749     -990.29433    
       250   0.00025        306.67276      0.15934513     0.1127969      0.18868665     79.241492     -8175.4569     -1536.0956    
       500   0.0005         306.67276      0.20424698     0.15767623     0.26311088     79.241492     -8175.4361     -2083.447     
       750   0.00075        306.67276      0.24905473     0.20246188     0.33752889     79.241492     -8175.4128     -2630.1517    
      1000   0.001          306.67276      0.29376829     0.24715387     0.41193982     79.241492     -8175.3869     -3176.2066    
      1250   0.00125        306.67276      0.33838781     0.29175232     0.48634329     79.241492     -8175.3583     -3721.6114    
      1500   0.0015         306.67276      0.38291341     0.33625738     0.56073904     79.241492     -8175.3272     -4266.3661    
      1750   0.00175        306.67276      0.42734516     0.38066915     0.63512677     79.241492     -8175.2934     -4810.4703    
      2000   0.002          306.67276      0.47168314     0.42498767     0.70950595     79.241492     -8175.2571     -5353.9225    
      2250   0.00225        306.67276      0.51592759     0.4692131      0.78387636     79.241492     -8175.2181     -5896.7235    
      2500   0.0025         306.67276      0.56007876     0.51334563     0.85823778     79.241492     -8175.1765     -6438.8739    
      2750   0.00275        306.67276      0.60413677     0.55738535     0.93258943     79.241492     -8175.1323     -6980.3718    
      3000   0.003          306.67276      0.64810171     0.60133244     1.0069308      79.241492     -8175.0855     -7521.2167    
      3250   0.00325        306.67276      0.69197376     0.64518705     1.0812618      79.241492     -8175.0362     -8061.4086    
      3500   0.0035         306.67276      0.7357531      0.68894931     1.1555817      79.241492     -8174.9842     -8600.9471    
      3750   0.00375        306.67276      0.77943985     0.7326193      1.2298899      79.241492     -8174.9296     -9139.83      
      4000   0.004          306.67276      0.82303411     0.7761971      1.3041855      79.241492     -8174.8723     -9678.0557    
      4250   0.00425        306.67276      0.86653599     0.8196828      1.3784682      79.241492     -8174.8125     -10215.623    
      4500   0.0045         306.67276      0.90994552     0.8630765      1.4527374      79.241492     -8174.7501     -10752.531    
      4750   0.00475        306.67276      0.9532629      0.90637838     1.5269925      79.241492     -8174.6851     -11288.779    
      5000   0.005          306.67276      0.99648818     0.94958854     1.601233       79.241492     -8174.6175     -11824.366    
      5250   0.00525        306.67276      1.0396215      0.99270712     1.6754581      79.241492     -8174.5473     -12359.289    
      5500   0.0055         306.67276      1.0826628      1.0357343      1.7496672      79.241492     -8174.4744     -12893.548    
      5750   0.00575        306.67276      1.1256123      1.07867        1.8238594      79.241492     -8174.399      -13427.139    
      6000   0.006          306.67276      1.1684701      1.1215144      1.8980346      79.241492     -8174.321      -13960.064    
      6250   0.00625        306.67276      1.2112364      1.1642677      1.9721925      79.241492     -8174.2404     -14492.322    
      6500   0.0065         306.67276      1.2539114      1.2069299      2.0463331      79.241492     -8174.1571     -15023.915    
      6750   0.00675        306.67276      1.2964954      1.2495013      2.1204558      79.241492     -8174.0713     -15554.842    
      7000   0.007          306.67276      1.3389881      1.2919816      2.19456        79.241492     -8173.9829     -16085.099    
      7250   0.00725        306.67276      1.3813896      1.3343709      2.2686448      79.241492     -8173.8919     -16614.684    
      7500   0.0075         306.67276      1.4237         1.3766693      2.3427095      79.241492     -8173.7983     -17143.596    
      7750   0.00775        306.67276      1.4659191      1.4188766      2.4167532      79.241492     -8173.7021     -17671.83     
      8000   0.008          306.67276      1.508047       1.4609928      2.4907745      79.241492     -8173.6033     -18199.381    
      8250   0.00825        306.67276      1.5500835      1.503018       2.5647726      79.241492     -8173.5019     -18726.247    
      8500   0.0085         306.67276      1.5920289      1.5449521      2.6387467      79.241492     -8173.3979     -19252.426    
      8750   0.00875        306.67276      1.6338832      1.5867955      2.7126962      79.241492     -8173.2913     -19777.916    
      9000   0.009          306.67276      1.6756464      1.6285483      2.7866205      79.241492     -8173.1821     -20302.717    
      9250   0.00925        306.67276      1.7173186      1.6702103      2.8605185      79.241492     -8173.0704     -20826.825    
      9500   0.0095         306.67276      1.7588997      1.7117817      2.9343895      79.241492     -8172.956      -21350.237    
      9750   0.00975        306.67276      1.8003901      1.7532627      3.0082327      79.241492     -8172.8391     -21872.952    
     10000   0.01           306.67276      1.8417898      1.7946533      3.0820478      79.241492     -8172.7196     -22394.97     
     10250   0.01025        306.67276      1.8830989      1.8359538      3.155834       79.241492     -8172.5974     -22916.289    
     10500   0.0105         306.67276      1.9243174      1.877164       3.2295908      79.241492     -8172.4727     -23436.907    
     10750   0.01075        306.67276      1.9654456      1.9182842      3.3033175      79.241492     -8172.3455     -23956.824    
     11000   0.011          306.67276      2.0064833      1.9593144      3.3770133      79.241492     -8172.2156     -24476.037    
     11250   0.01125        306.67276      2.0474307      2.0002547      3.4506773      79.241492     -8172.0831     -24994.542    
     11500   0.0115         306.67276      2.0882879      2.0411051      3.5243086      79.241492     -8171.9481     -25512.339    
     11750   0.01175        306.67276      2.129055       2.0818657      3.5979059      79.241492     -8171.8105     -26029.422    
     12000   0.012          306.67276      2.169732       2.1225365      3.6714678      79.241492     -8171.6703     -26545.788    
     12250   0.01225        306.67276      2.2103189      2.1631173      3.7449933      79.241492     -8171.5275     -27061.432    
     12500   0.0125         306.67276      2.2508157      2.2036084      3.8184813      79.241492     -8171.3822     -27576.351    
     12750   0.01275        306.67276      2.2912227      2.2440097      3.8919303      79.241492     -8171.2343     -28090.542    
     13000   0.013          306.67276      2.3315396      2.2843211      3.9653388      79.241492     -8171.0838     -28603.999    
     13250   0.01325        306.67276      2.3717667      2.3245427      4.0387055      79.241492     -8170.9307     -29116.716    
     13500   0.0135         306.67276      2.4119038      2.3646745      4.1120292      79.241492     -8170.7751     -29628.692    
     13750   0.01375        306.67276      2.4519513      2.4047168      4.1853083      79.241492     -8170.6169     -30139.921    
     14000   0.014          306.67276      2.491909       2.4446695      4.2585417      79.241492     -8170.4561     -30650.401    
     14250   0.01425        306.67276      2.5317772      2.4845327      4.3317285      79.241492     -8170.2928     -31160.128    
     14500   0.0145         306.67276      2.5715557      2.5243063      4.4048671      79.241492     -8170.1269     -31669.097    
     14750   0.01475        306.67276      2.6112446      2.5639903      4.4779565      79.241492     -8169.9584     -32177.304    
     15000   0.015          306.67276      2.6508436      2.6035844      4.5509949      79.241492     -8169.7874     -32684.743    
     15250   0.01525        306.67276      2.6903529      2.6430889      4.623981       79.241492     -8169.6138     -33191.41     
     15500   0.0155         306.67276      2.7297725      2.6825038      4.6969134      79.241492     -8169.4376     -33697.299    
     15750   0.01575        306.67276      2.7691025      2.7218292      4.7697909      79.241492     -8169.2589     -34202.409    
     16000   0.016          306.67276      2.8083431      2.7610653      4.8426125      79.241492     -8169.0777     -34706.737    
     16250   0.01625        306.67276      2.8474944      2.8002122      4.9153772      79.241492     -8168.8939     -35210.28     
     16500   0.0165         306.67276      2.8865565      2.8392699      4.9880835      79.241492     -8168.7075     -35713.033    
     16750   0.01675        306.67276      2.9255294      2.8782385      5.0607303      79.241492     -8168.5186     -36214.994    
     17000   0.017          306.67276      2.9644132      2.9171178      5.1333165      79.241492     -8168.3272     -36716.159    
     17250   0.01725        306.67276      3.0032079      2.9559081      5.2058413      79.241492     -8168.1332     -37216.524    
     17500   0.0175         306.67276      3.0419135      2.9946091      5.2783029      79.241492     -8167.9367     -37716.085    
     17750   0.01775        306.67276      3.08053        3.033221       5.3507         79.241492     -8167.7376     -38214.837    
     18000   0.018          306.67276      3.1190575      3.0717439      5.4230318      79.241492     -8167.536      -38712.777    
     18250   0.01825        306.67276      3.157496       3.1101781      5.495297       79.241492     -8167.3319     -39209.904    
     18500   0.0185         306.67276      3.1958458      3.1485237      5.5674948      79.241492     -8167.1252     -39706.214    
     18750   0.01875        306.67276      3.234107       3.1867809      5.6396243      79.241492     -8166.916      -40201.707    
     19000   0.019          306.67276      3.2722794      3.2249499      5.7116843      79.241492     -8166.7043     -40696.379    
     19250   0.01925        306.67276      3.3103631      3.2630306      5.7836732      79.241492     -8166.49       -41190.223    
     19500   0.0195         306.67276      3.3483579      3.301023       5.8555894      79.241492     -8166.2733     -41683.234    
     19750   0.01975        306.67276      3.3862639      3.3389271      5.9274315      79.241492     -8166.054      -42175.408    
     20000   0.02           306.67276      3.424081       3.376743       5.9991978      79.241492     -8165.8322     -42666.74     
     20250   0.02025        306.67276      3.4618094      3.4144707      6.0708872      79.241492     -8165.6078     -43157.224    
     20500   0.0205         306.67276      3.499449       3.4521102      6.1424982      79.241492     -8165.381      -43646.858    
     20750   0.02075        306.67276      3.5369999      3.4896615      6.2140293      79.241492     -8165.1517     -44135.636    
     21000   0.021          306.67276      3.5744621      3.527125       6.2854794      79.241492     -8164.9198     -44623.555    
     21250   0.02125        306.67276      3.611836       3.5645007      6.3568474      79.241492     -8164.6855     -45110.613    
     21500   0.0215         306.67276      3.6491215      3.6017888      6.428132       79.241492     -8164.4486     -45596.808    
     21750   0.02175        306.67276      3.6863187      3.6389893      6.4993317      79.241492     -8164.2093     -46082.132    
     22000   0.022          306.67276      3.7234274      3.6761021      6.5704449      79.241492     -8163.9674     -46566.582    
     22250   0.02225        306.67276      3.7604478      3.7131274      6.6414703      79.241492     -8163.7231     -47050.152    
     22500   0.0225         306.67276      3.7973798      3.7500651      6.7124058      79.241492     -8163.4763     -47532.836    
     22750   0.02275        306.67276      3.8342235      3.7869152      6.78325        79.241492     -8163.227      -48014.629    
     23000   0.023          306.67276      3.870979       3.8236779      6.8540011      79.241492     -8162.9752     -48495.527    
     23250   0.02325        306.67276      3.9076462      3.8603533      6.9246579      79.241492     -8162.7209     -48975.524    
     23500   0.0235         306.67276      3.9442252      3.8969412      6.9952191      79.241492     -8162.4642     -49454.618    
     23750   0.02375        306.67276      3.980716       3.9334418      7.0656829      79.241492     -8162.205      -49932.802    
     24000   0.024          306.67276      4.0171185      3.9698548      7.1360474      79.241492     -8161.9433     -50410.069    
     24250   0.02425        306.67276      4.0534329      4.0061804      7.2063113      79.241492     -8161.6792     -50886.416    
     24500   0.0245         306.67276      4.089659       4.0424186      7.2764736      79.241492     -8161.4126     -51361.837    
     24750   0.02475        306.67276      4.1257971      4.0785691      7.346533       79.241492     -8161.1435     -51836.331    
     25000   0.025          306.67276      4.161847       4.1146323      7.4164884      79.241492     -8160.872      -52309.892    
     25250   0.02525        306.67276      4.197809       4.1506079      7.4863384      79.241492     -8160.5981     -52782.518    
     25500   0.0255         306.67276      4.2336831      4.1864962      7.5560817      79.241492     -8160.3217     -53254.203    
     25750   0.02575        306.67276      4.2694691      4.2222971      7.6257166      79.241492     -8160.0428     -53724.942    
     26000   0.026          306.67276      4.3051671      4.2580106      7.6952415      79.241492     -8159.7615     -54194.731    
[...]
    165000   0.165          306.67276      15.406682      15.392369      15.844941      79.241492     -7836.4386     -155479.98    
    165250   0.16525        306.67276      15.42305       15.408707      15.833562      79.241492     -7835.8718     -155551.06    
    165500   0.1655         306.67276      15.439437      15.425064      15.822258      79.241492     -7835.3054     -155622.53    
    165750   0.16575        306.67276      15.455842      15.44144       15.81103       79.241492     -7834.7394     -155694.37    
    166000   0.166          306.67276      15.472265      15.457834      15.799877      79.241492     -7834.1737     -155766.59    
    166250   0.16625        306.67276      15.488707      15.474247      15.788802      79.241492     -7833.6085     -155839.19    
    166500   0.1665         306.67276      15.505168      15.490679      15.777804      79.241492     -7833.0437     -155912.17    
    166750   0.16675        306.67276      15.521647      15.50713       15.766883      79.241492     -7832.4793     -155985.53    
    167000   0.167          306.67276      15.538145      15.5236        15.75604       79.241492     -7831.9152     -156059.28    
    167250   0.16725        306.67276      15.554661      15.540089      15.745274      79.241492     -7831.3515     -156133.41    
    167500   0.1675         306.67276      15.571195      15.556597      15.734587      79.241492     -7830.7882     -156207.93    
    167750   0.16775        306.67276      15.587748      15.573123      15.723978      79.241492     -7830.2253     -156282.83    
    168000   0.168          306.67276      15.604319      15.589668      15.713448      79.241492     -7829.6628     -156358.12    
    168250   0.16825        306.67276      15.62091       15.606231      15.702997      79.241492     -7829.1006     -156433.79    
    168500   0.1685         306.67276      15.637518      15.622813      15.692626      79.241492     -7828.5388     -156509.86    
    168750   0.16875        306.67276      15.654146      15.639414      15.682336      79.241492     -7827.9774     -156586.32    
    169000   0.169          306.67276      15.670792      15.656033      15.672125      79.241492     -7827.4163     -156663.17    
    169250   0.16925        306.67276      15.687457      15.672671      15.661995      79.241492     -7826.8556     -156740.41    
    169500   0.1695         306.67276      15.704141      15.689327      15.651945      79.241492     -7826.2952     -156818.04    
    169750   0.16975        306.67276      15.720844      15.706002      15.641977      79.241492     -7825.7352     -156896.08    
    170000   0.17           306.67276      15.737565      15.722695      15.632091      79.241492     -7825.1755     -156974.5     
    170250   0.17025        306.67276      15.754304      15.739407      15.622286      79.241492     -7824.6162     -157053.33    
    170500   0.1705         306.67276      15.771062      15.756138      15.612564      79.241492     -7824.0572     -157132.55    
    170750   0.17075        306.67276      15.787839      15.772887      15.602924      79.241492     -7823.4986     -157212.17    
    171000   0.171          306.67276      15.804634      15.789654      15.593367      79.241492     -7822.9403     -157292.18    
    171250   0.17125        306.67276      15.821448      15.80644       15.583892      79.241492     -7822.3824     -157372.6     
    171500   0.1715         306.67276      15.83828       15.823245      15.574502      79.241492     -7821.8248     -157453.42    
    171750   0.17175        306.67276      15.855131      15.840068      15.565194      79.241492     -7821.2675     -157534.64    
    172000   0.172          306.67276      15.872         15.856909      15.555971      79.241492     -7820.7105     -157616.27    
    172250   0.17225        306.67276      15.888888      15.873769      15.546832      79.241492     -7820.1539     -157698.3     
    172500   0.1725         306.67276      15.905794      15.890648      15.537777      79.241492     -7819.5976     -157780.73    
    172750   0.17275        306.67276      15.922718      15.907544      15.528807      79.241492     -7819.0416     -157863.56    
    173000   0.173          306.67276      15.939661      15.924459      15.519923      79.241492     -7818.4859     -157946.81    
    173250   0.17325        306.67276      15.956621      15.941392      15.511123      79.241492     -7817.9305     -158030.46    
    173500   0.1735         306.67276      15.9736        15.958344      15.502409      79.241492     -7817.3755     -158114.51    
    173750   0.17375        306.67276      15.990597      15.975313      15.493781      79.241492     -7816.8207     -158198.97    
    174000   0.174          306.67276      16.007612      15.992301      15.485238      79.241492     -7816.2663     -158283.84    
    174250   0.17425        306.67276      16.024646      16.009307      15.476782      79.241492     -7815.7121     -158369.12    
    174500   0.1745         306.67276      16.041697      16.026331      15.468412      79.241492     -7815.1583     -158454.8     
    174750   0.17475        306.67276      16.058767      16.043373      15.460129      79.241492     -7814.6047     -158540.9     
    175000   0.175          306.67276      16.075854      16.060433      15.451933      79.241492     -7814.0515     -158627.4     
    175250   0.17525        306.67276      16.09296       16.077511      15.443823      79.241492     -7813.4985     -158714.31    
    175500   0.1755         306.67276      16.110083      16.094606      15.435799      79.241492     -7812.9458     -158801.63    
    175750   0.17575        306.67276      16.127225      16.11172       15.427863      79.241492     -7812.3934     -158889.36    
    176000   0.176          306.67276      16.144384      16.128851      15.420013      79.241492     -7811.8413     -158977.49    
    176250   0.17625        306.67276      16.161561      16.145999      15.41225       79.241492     -7811.2894     -159066.04    
    176500   0.1765         306.67276      16.178756      16.163166      15.404575      79.241492     -7810.7379     -159154.99    
    176750   0.17675        306.67276      16.195968      16.180349      15.396987      79.241492     -7810.1866     -159244.35    
    177000   0.177          306.67276      16.213198      16.197551      15.389486      79.241492     -7809.6355     -159334.12    
    177250   0.17725        306.67276      16.230446      16.21477       15.382073      79.241492     -7809.0847     -159424.3     
    177500   0.1775         306.67276      16.247712      16.232006      15.374748      79.241492     -7808.5342     -159514.89    
    177750   0.17775        306.67276      16.264995      16.24926       15.36751       79.241492     -7807.984      -159605.89    
    178000   0.178          306.67276      16.282296      16.266532      15.360361      79.241492     -7807.434      -159697.3     
    178250   0.17825        306.67276      16.299615      16.28382       15.3533        79.241492     -7806.8842     -159789.12    
    178500   0.1785         306.67276      16.316951      16.301126      15.346327      79.241492     -7806.3347     -159881.35    
    178750   0.17875        306.67276      16.334306      16.318449      15.339443      79.241492     -7805.7855     -159973.99    
    179000   0.179          306.67276      16.351678      16.335788      15.332647      79.241492     -7805.2364     -160067.04    
    179250   0.17925        306.67276      16.369067      16.353145      15.325939      79.241492     -7804.6877     -160160.5     
    179500   0.1795         306.67276      16.386473      16.370518      15.31932       79.241492     -7804.1391     -160254.37    
    179750   0.17975        306.67276      16.403897      16.387909      15.312789      79.241492     -7803.5908     -160348.65    
    180000   0.18           306.67276      16.421338      16.405316      15.306348      79.241492     -7803.0428     -160443.34    
    180250   0.18025        306.67276      16.438796      16.42274       15.299995      79.241492     -7802.4949     -160538.43    
    180500   0.1805         306.67276      16.45627       16.44018       15.29373       79.241492     -7801.9473     -160633.94    
    180750   0.18075        306.67276      16.473762      16.457637      15.287555      79.241492     -7801.3999     -160729.85    
    181000   0.181          306.67276      16.49127       16.475111      15.281468      79.241492     -7800.8527     -160826.16    
    181250   0.18125        306.67276      16.508795      16.492602      15.275469      79.241492     -7800.3057     -160922.89    
    181500   0.1815         306.67276      16.526336      16.510108      15.26956       79.241492     -7799.759      -161020.01    
    181750   0.18175        306.67276      16.543894      16.527631      15.263739      79.241492     -7799.2124     -161117.55    
    182000   0.182          306.67276      16.561469      16.545171      15.258007      79.241492     -7798.666      -161215.49    
    182250   0.18225        306.67276      16.57906       16.562727      15.252365      79.241492     -7798.1199     -161313.84    
    182500   0.1825         306.67276      16.596667      16.580299      15.246812      79.241492     -7797.574      -161412.59    
    182750   0.18275        306.67276      16.614291      16.597888      15.241348      79.241492     -7797.0282     -161511.76    
    183000   0.183          306.67276      16.631931      16.615493      15.235974      79.241492     -7796.4826     -161611.33    
    183250   0.18325        306.67276      16.649588      16.633114      15.230689      79.241492     -7795.9373     -161711.3     
    183500   0.1835         306.67276      16.667261      16.650751      15.225494      79.241492     -7795.3921     -161811.69    
    183750   0.18375        306.67276      16.68495       16.668404      15.22039       79.241492     -7794.8471     -161912.48    
    184000   0.184          306.67276      16.702656      16.686072      15.215374      79.241492     -7794.3023     -162013.68    
    184250   0.18425        306.67276      16.720378      16.703757      15.210449      79.241492     -7793.7576     -162115.28    
    184500   0.1845         306.67276      16.738116      16.721457      15.205614      79.241492     -7793.2131     -162217.29    
    184750   0.18475        306.67276      16.755869      16.739173      15.200869      79.241492     -7792.6688     -162319.7     
    185000   0.185          306.67276      16.773639      16.756904      15.196213      79.241492     -7792.1247     -162422.52    
    185250   0.18525        306.67276      16.791424      16.774651      15.191647      79.241492     -7791.5807     -162525.74    
    185500   0.1855         306.67276      16.809225      16.792413      15.18717       79.241492     -7791.0369     -162629.36    
    185750   0.18575        306.67276      16.827042      16.810191      15.182783      79.241492     -7790.4933     -162733.38    
    186000   0.186          306.67276      16.844873      16.827983      15.178485      79.241492     -7789.9498     -162837.8     
    186250   0.18625        306.67276      16.862721      16.845791      15.174276      79.241492     -7789.4064     -162942.62    
    186500   0.1865         306.67276      16.880584      16.863613      15.170157      79.241492     -7788.8632     -163047.84    
    186750   0.18675        306.67276      16.898462      16.88145       15.166127      79.241492     -7788.3202     -163153.46    
    187000   0.187          306.67276      16.916356      16.899302      15.162186      79.241492     -7787.7773     -163259.48    
    187250   0.18725        306.67276      16.934265      16.917168      15.158335      79.241492     -7787.2345     -163365.89    
    187500   0.1875         306.67276      16.95219       16.93505       15.154573      79.241492     -7786.6919     -163472.71    
    187750   0.18775        306.67276      16.97013       16.952945      15.1509        79.241492     -7786.1494     -163579.92    
    188000   0.188          306.67276      16.988085      16.970856      15.147317      79.241492     -7785.607      -163687.52    
    188250   0.18825        306.67276      17.006055      16.98878       15.143822      79.241492     -7785.0648     -163795.53    
    188500   0.1885         306.67276      17.02404       17.006719      15.140417      79.241492     -7784.5226     -163903.92    
    188750   0.18875        306.67276      17.04204       17.024673      15.1371        79.241492     -7783.9806     -164012.71    
    189000   0.189          306.67276      17.060055      17.04264       15.133872      79.241492     -7783.4388     -164121.89    
    189250   0.18925        306.67276      17.078084      17.060622      15.130732      79.241492     -7782.897      -164231.46    
    189500   0.1895         306.67276      17.096128      17.078618      15.127682      79.241492     -7782.3553     -164341.43    
    189750   0.18975        306.67276      17.114187      17.096628      15.12472       79.241492     -7781.8138     -164451.78    
    190000   0.19           306.67276      17.13226       17.114653      15.121848      79.241492     -7781.2723     -164562.54    
    190250   0.19025        306.67276      17.150347      17.132692      15.119065      79.241492     -7780.731      -164673.68    
    190500   0.1905         306.67276      17.168449      17.150745      15.11637       79.241492     -7780.1897     -164785.21    
    190750   0.19075        306.67276      17.186565      17.168812      15.113765      79.241492     -7779.6486     -164897.14    
    191000   0.191          306.67276      17.204696      17.186893      15.111249      79.241492     -7779.1075     -165009.46    
    191250   0.19125        306.67276      17.22284       17.204987      15.108822      79.241492     -7778.5665     -165122.16    
    191500   0.1915         306.67276      17.240999      17.223096      15.106483      79.241492     -7778.0257     -165235.26    
    191750   0.19175        306.67276      17.259171      17.241218      15.104232      79.241492     -7777.4849     -165348.74    
    192000   0.192          306.67276      17.277357      17.259354      15.10207       79.241492     -7776.9441     -165462.61    
    192250   0.19225        306.67276      17.295557      17.277504      15.099996      79.241492     -7776.4035     -165576.86    
    192500   0.1925         306.67276      17.31377       17.295667      15.098011      79.241492     -7775.8629     -165691.49    
    192750   0.19275        306.67276      17.331997      17.313844      15.096114      79.241492     -7775.3224     -165806.52    
    193000   0.193          306.67276      17.350237      17.332034      15.094306      79.241492     -7774.782      -165921.92    
    193250   0.19325        306.67276      17.36849       17.350238      15.092587      79.241492     -7774.2416     -166037.72    
    193500   0.1935         306.67276      17.386757      17.368455      15.090956      79.241492     -7773.7013     -166153.9     
    193750   0.19375        306.67276      17.405038      17.386686      15.089414      79.241492     -7773.161      -166270.46    
    194000   0.194          306.67276      17.423331      17.40493       15.087961      79.241492     -7772.6208     -166387.41    
    194250   0.19425        306.67276      17.441637      17.423188      15.086595      79.241492     -7772.0807     -166504.74    
    194500   0.1945         306.67276      17.459957      17.441459      15.085319      79.241492     -7771.5406     -166622.45    
    194750   0.19475        306.67276      17.478289      17.459742      15.08413       79.241492     -7771.0005     -166740.54    
    195000   0.195          306.67276      17.496634      17.478039      15.08303       79.241492     -7770.4605     -166859.01    
    195250   0.19525        306.67276      17.514992      17.496349      15.082018      79.241492     -7769.9206     -166977.86    
    195500   0.1955         306.67276      17.533363      17.514671      15.081094      79.241492     -7769.3806     -167097.09    
    195750   0.19575        306.67276      17.551746      17.533006      15.080257      79.241492     -7768.8407     -167216.7     
    196000   0.196          306.67276      17.570142      17.551354      15.079509      79.241492     -7768.3009     -167336.68    
    196250   0.19625        306.67276      17.58855       17.569714      15.078847      79.241492     -7767.761      -167457.04    
    196500   0.1965         306.67276      17.60697       17.588086      15.078273      79.241492     -7767.2212     -167577.76    
    196750   0.19675        306.67276      17.625402      17.60647       15.077785      79.241492     -7766.6814     -167698.86    
    197000   0.197          306.67276      17.643847      17.624867      15.077385      79.241492     -7766.1416     -167820.33    
    197250   0.19725        306.67276      17.662303      17.643275      15.077071      79.241492     -7765.6018     -167942.17    
    197500   0.1975         306.67276      17.680771      17.661696      15.076844      79.241492     -7765.0621     -168064.37    
    197750   0.19775        306.67276      17.699251      17.680128      15.076703      79.241492     -7764.5223     -168186.94    
    198000   0.198          306.67276      17.717742      17.698572      15.076648      79.241492     -7763.9826     -168309.87    
    198250   0.19825        306.67276      17.736244      17.717027      15.076679      79.241492     -7763.4429     -168433.17    
    198500   0.1985         306.67276      17.754757      17.735495      15.076796      79.241492     -7762.9031     -168556.83    
    198750   0.19875        306.67276      17.773282      17.753973      15.076999      79.241492     -7762.3634     -168680.85    
    199000   0.199          306.67276      17.791818      17.772463      15.077287      79.241492     -7761.8236     -168805.23    
    199250   0.19925        306.67276      17.810364      17.790964      15.077661      79.241492     -7761.2839     -168929.96    
    199500   0.1995         306.67276      17.828922      17.809477      15.078119      79.241492     -7760.7441     -169055.06    
    199750   0.19975        306.67276      17.84749       17.828         15.078663      79.241492     -7760.2043     -169180.51    
    200000   0.2            306.67276      17.866069      17.846534      15.079291      79.241492     -7759.6645     -169306.31    
Loop time of 396.432 on 2 procs for 200000 steps with 2000 atoms

Performance: 43.589 ns/day, 0.551 hours/ns, 504.500 timesteps/s, 1.009 Matom-step/s
42.1% CPU use with 2 MPI tasks x 1 OpenMP threads

MPI task timing breakdown:
Section |  min time  |  avg time  |  max time  |%varavg| %total
---------------------------------------------------------------
Pair    | 364.01     | 366.3      | 368.6      |  12.0 | 92.40
Neigh   | 0.01989    | 0.020179   | 0.020469   |   0.2 |  0.01
Comm    | 11.309     | 13.579     | 15.849     |  61.6 |  3.43
Output  | 5.6231     | 5.7164     | 5.8097     |   3.9 |  1.44
Modify  | 8.7532     | 8.7692     | 8.7851     |   0.5 |  2.21
Other   |            | 2.044      |            |       |  0.52

Nlocal:           1000 ave        1002 max         998 min
Histogram: 1 0 0 0 0 0 0 0 0 1
Nghost:           3714 ave        3716 max        3712 min
Histogram: 1 0 0 0 0 0 0 0 0 1
Neighs:        70716.5 ave       71934 max       69499 min
Histogram: 1 0 0 0 0 0 0 0 0 1
FullNghs:       141427 ave      141663 max      141191 min
Histogram: 1 0 0 0 0 0 0 0 0 1

Total # of neighbors = 282854
Ave neighs/atom = 141.427
Neighbor list builds = 11
Dangerous builds = 0

print "Simulation Executed..."
Simulation Executed...

# "mpiexec -np 2 lmp -in edge_dislocation_tension.lmp"
# "lmp -in edge_dislocation_tension.lmp"
Total wall time: 0:08:10
