ITEM: TIMESTEP
111250
ITEM: NUMBER OF ATOMS
2000
ITEM: BOX BOUNDS pp pp pp
1.0838953229856951e-01 1.4221610467701321e+01
2.1677906459713903e-01 2.8443220935402643e+01
-2.7066335289328345e+00 6.0026633528932393e+01
ITEM: ATOMS id type x y z vx vy vz c_csym c_peratom fx fy fz
2 1 1.62332 1.66863 -1.13029 -0.282889 -3.25185 -0.636516 0.278871 -4.0059 -0.599124 -0.0404774 -0.115563
4 1 4.35789 1.61575 -1.20644 0.990702 -5.33602 3.45801 0.241896 -4.01393 0.375337 0.0780347 0.618379
11 1 0.115605 3.14255 -2.65596 0.617832 -0.194419 3.50607 0.232935 -3.9404 -0.105896 -0.316204 -0.240051
101 1 0.126621 0.284403 0.401417 -1.57173 1.46596 2.1275 0.152833 -4.03297 0.166926 -0.20121 -0.128286
103 1 2.85007 0.270771 0.464317 0.287695 0.367304 -1.8153 0.245169 -3.90189 0.778633 0.342328 0.202124
111 1 0.168447 3.08626 0.429338 -2.2925 0.592843 0.179022 0.13369 -4.01057 0.223095 -0.340267 -0.0371165
113 1 2.87763 3.13123 0.487901 -1.71434 2.42111 -1.1208 5.77158 -3.97027 -0.126846 0.23214 0.318864
13 1 2.94284 3.10367 -2.68656 -0.0706192 -1.95523 0.774801 0.07469 -3.92322 -0.0109035 -0.0991474 0.10565
6 1 7.17995 1.58532 -1.13742 -1.53139 -1.81767 -2.43971 0.231521 -3.98658 0.165057 0.562292 0.163999
17 1 8.63608 3.25517 -2.6336 -1.24355 -0.0988133 -0.860341 5.17895 -3.97958 -0.607215 -0.885255 -0.124078
105 1 5.90739 0.22905 0.43087 0.812795 -1.48127 -4.16198 0.295616 -3.98671 -0.247208 -0.0792872 0.111124
115 1 5.79048 3.13764 0.415315 -0.932742 0.818202 0.0439582 0.183876 -3.96219 -0.287546 -0.547114 0.211706
117 1 8.60233 3.08029 0.500113 0.475293 0.415756 -1.302 0.172336 -3.95592 -0.0470225 0.439192 -0.571695
15 1 5.86915 3.09703 -2.64636 -1.1078 -3.23994 -0.243916 0.299505 -3.90333 -0.18099 0.325287 -0.198538
8 1 9.98472 1.71462 -1.25908 1.02028 2.64764 -1.65962 0.423723 -3.96611 -0.257322 0.0481122 0.889805
9 1 11.3244 0.287262 -2.60073 -0.628437 1.37052 0.162777 0.417782 -3.96164 0.742114 -0.0770847 0.0270123
10 1 12.8557 1.68831 -1.20588 -0.261261 2.58464 0.684826 0.142237 -3.94213 -0.378327 0.480566 0.408393
109 1 11.3921 0.306018 0.399315 4.17545 -4.26001 3.01885 0.171515 -3.96703 -0.321775 -0.308458 -0.243865
119 1 11.4562 3.11085 0.342258 -0.877516 0.612354 1.13148 0.159579 -4.01134 -0.226992 -0.499651 0.0691501
12 1 1.52356 4.6359 -1.23811 1.18436 1.40208 1.05812 0.593194 -3.95605 0.246344 -0.372149 0.0560684
14 1 4.34915 4.42365 -1.03222 -0.761965 1.11821 -1.53086 0.278399 -4.01715 0.19226 0.121129 -0.165106
22 1 1.54026 7.32431 -1.20934 0.529166 1.27637 -0.648244 5.7811 -3.93547 -0.399371 -0.100439 0.709807
23 1 3.01689 5.92797 -2.6776 4.21453 0.286138 -0.65637 0.225997 -3.93685 -0.18126 -0.160625 -0.547191
24 1 4.35552 7.36387 -1.13557 0.718611 1.41969 0.425215 0.111129 -3.9554 -0.250218 -0.0497067 -0.0584913
121 1 0.132435 5.82793 0.422022 -2.35864 3.10392 -0.471262 0.192085 -3.94772 0.283133 0.250023 0.18186
123 1 3.01618 5.86763 0.522117 1.00139 1.8653 -1.24788 0.26207 -3.99877 -0.209689 -0.261529 0.000169936
16 1 7.14135 4.5226 -1.0545 0.603539 0.154603 0.133915 0.16229 -3.98072 -0.0530801 -0.285713 0.0467181
25 1 5.70759 5.92495 -2.58269 -0.827089 1.1553 2.35682 5.0315 -4.03034 0.177015 -0.289876 -0.340458
26 1 7.1412 7.16975 -1.18764 -0.0337704 2.62343 0.778117 5.18463 -3.88623 -0.0941221 0.958081 0.177769
125 1 5.74127 5.95799 0.467551 -0.136011 -2.75282 -0.154075 0.138961 -4.08978 -0.167393 0.185794 0.0722736
127 1 8.57446 5.88387 0.325235 -1.51658 -3.67076 0.00771245 0.393033 -3.97401 0.113545 -0.190645 0.360159
18 1 10.0587 4.47472 -1.13402 2.01504 1.15568 0.108705 0.218142 -3.98001 -0.135946 0.516256 0.386178
20 1 12.7939 4.54238 -1.16938 -0.022531 3.00342 -1.17168 0.0635672 -4.03311 0.261288 0.00685743 0.506118
28 1 10.1169 7.35391 -1.04026 1.08986 -1.21663 1.80841 0.416191 -3.95585 -0.27776 -0.176236 0.30239
29 1 11.4127 5.98723 -2.68787 1.3822 1.47477 -0.555896 0.0542884 -4.01375 -0.502349 -0.173842 0.0436435
30 1 12.8531 7.28188 -1.07012 0.362699 -0.519128 0.486825 0.138067 -4.02266 -0.362884 0.376313 0.384299
129 1 11.3642 5.90889 0.475063 -0.995542 1.01394 2.2528 0.112546 -4.0304 0.00650422 -0.380211 0.175282
32 1 1.48279 10.1923 -1.20669 2.66336 -1.18469 0.933482 0.240011 -4.06711 0.18146 -0.566088 0.0156863
34 1 4.32744 10.195 -1.20572 -3.42019 -1.92301 1.41173 0.198981 -3.98172 0.0227679 -0.271532 0.404977
43 1 2.92107 11.628 -2.68302 2.17426 0.782241 3.50485 0.12155 -4.04061 -0.0946354 -0.295098 -0.133421
133 1 2.87707 8.77788 0.457155 -1.44944 0.975575 0.710255 0.0926182 -3.92884 0.390159 -0.0265813 0.0984843
141 1 0.146359 11.6297 0.33674 -2.20193 -7.04944 -1.51669 0.332489 -4.03639 -0.108384 0.407249 0.138689
143 1 2.92416 11.521 0.4323 -0.572232 1.1909 1.77002 0.166712 -4.04678 -0.51775 0.0966412 -0.179329
36 1 7.17897 10.1662 -1.08578 0.10168 3.47717 0.174941 0.171333 -3.9034 0.260837 0.0839004 0.169445
47 1 8.63625 11.4798 -2.59787 -1.46078 2.66256 0.234251 0.294594 -3.98633 -0.17551 -0.263849 -0.185752
135 1 5.71447 8.72482 0.537497 -0.880733 0.590278 -0.109653 5.70474 -3.95355 0.313483 -0.0164749 0.0538108
137 1 8.61908 8.74613 0.36405 -4.19951 1.4167 -2.48788 0.375789 -4.00588 0.0401769 -0.348027 -0.196792
145 1 5.78797 11.4174 0.435035 0.913579 -3.10787 0.676852 5.71289 -3.9585 -0.170569 0.497601 0.192059
147 1 8.63173 11.5707 0.543353 -2.52053 -2.66134 -2.016 0.197551 -3.99172 -0.401624 0.688992 -0.5816
37 1 8.64539 8.6808 -2.5664 -0.410704 1.96136 0.795798 0.380432 -4.04335 -0.246882 0.431683 -0.0373158
41 1 14.1834 11.5242 -2.60201 -1.35835 -5.95404 3.83557 0.254983 -3.99796 -0.446549 0.23157 0.130824
131 1 14.189 8.78043 0.559533 -1.59748 2.05417 3.03081 0.421555 -3.91583 0.628117 -0.139615 -0.259377
38 1 10.1092 10.2499 -1.01357 0.647054 3.02786 -2.05404 0.499346 -3.99999 -0.365717 -0.305294 0.589303
39 1 11.3428 8.78317 -2.65134 2.80774 -0.622395 -1.00191 0.224205 -3.99764 0.713653 -0.340934 0.300694
40 1 12.8549 10.1114 -0.99511 -1.75728 -0.634733 -0.267602 0.255128 -3.99995 -0.351149 0.0282752 0.0157165
139 1 11.4119 8.69776 0.523996 -0.425376 2.4171 -0.0430739 0.112339 -4.03386 -0.0542291 0.454592 -0.497265
149 1 11.4267 11.5446 0.524927 -0.904464 -0.906018 0.248794 0.18088 -4.00265 -0.200071 0.412254 -0.286989
49 1 11.351 11.4979 -2.62111 -3.94296 -1.72452 -3.57845 0.146331 -3.95443 0.280389 0.118578 0.147126
42 1 1.60077 12.9976 -1.22415 -0.841826 -0.173751 0.753914 0.438192 -3.98764 -0.733743 -0.200038 0.386536
44 1 4.30049 12.9516 -1.24023 -1.17519 0.372824 -0.13007 6.07047 -4.05645 0.50896 -0.143954 0.0157081
52 1 1.58776 15.7356 -0.981152 -0.585983 1.26946 1.71295 5.19137 -3.8734 -0.488901 0.108763 -0.44182
54 1 4.38463 15.6552 -1.13911 0.269637 0.959657 1.9614 0.279887 -4.01926 -0.621229 0.108951 -0.503626
153 1 2.9946 14.2978 0.446194 -3.03426 -0.361765 3.65674 0.167698 -3.94256 -0.596659 -0.160523 -0.0377096
46 1 7.13899 12.8477 -1.16515 -0.042375 -0.703018 -2.37022 5.24596 -3.95543 -0.246995 0.541537 0.384334
56 1 7.08452 15.7726 -1.22284 0.19616 0.505449 -1.21975 0.264213 -4.02477 -0.0632627 -0.242906 0.0399374
155 1 5.76502 14.3443 0.385949 -0.699273 2.50818 -2.71856 0.104484 -3.98909 0.0184408 -0.353908 -0.0072229
157 1 8.53251 14.4644 0.474954 1.77519 1.9958 -4.01974 5.19681 -3.9955 -0.0494153 -0.550963 0.151084
57 1 8.49816 14.3386 -2.55778 5.27468 2.46447 0.151665 0.530778 -3.88836 -0.110298 -0.149969 -1.03404
51 1 14.0057 14.3518 -2.70619 5.08997 3.62125 -2.07853 4.9136 -3.90258 1.42524 -0.0812701 -0.0106035
151 1 14.2009 14.4155 0.455083 -4.71089 2.01634 -0.85659 0.126892 -3.90726 0.104272 -0.190371 -0.115971
48 1 9.93985 13.0563 -1.11149 2.86016 2.34417 0.701272 5.19338 -3.97778 0.476989 -0.764135 0.223143
50 1 12.7181 12.9904 -1.11435 0.559624 -1.36974 -0.820506 0.183866 -3.98556 0.114722 -0.471907 0.284467
58 1 9.99316 15.7186 -1.13059 -3.3381 -1.51398 5.38263 0.178536 -4.01916 0.0458546 0.58675 0.00517922
60 1 12.7967 15.7437 -1.12463 1.53771 1.90327 -4.70531 0.114003 -4.01695 -0.118535 0.159836 0.391373
159 1 11.3491 14.3264 0.508081 -0.265735 -1.65506 -3.98071 0.15446 -3.99139 0.289123 0.291178 -0.151736
62 1 1.43944 18.5161 -1.08704 0.272627 0.831543 -0.200207 0.117267 -3.94828 -0.00996937 0.0564228 -0.411651
64 1 4.38586 18.6552 -1.08263 1.24428 1.0664 2.86252 5.32703 -3.94852 0.017101 -0.642999 0.184034
163 1 2.94245 17.1558 0.335322 0.341627 2.40032 0.506019 0.409821 -3.96942 0.209964 0.234624 0.327721
171 1 0.141802 19.9783 0.547414 -0.0590841 -1.37942 4.27312 0.176809 -4.05443 -0.647873 -0.0498646 -0.449385
173 1 2.89555 19.9823 0.422975 0.785649 -1.23368 2.3689 0.149663 -4.02719 -0.664593 0.0288442 0.372184
66 1 7.24355 18.6165 -1.08345 2.75597 -4.35103 0.905848 5.61403 -4.05488 -0.464297 -0.180687 0.279137
67 1 8.57677 17.1461 -2.68116 -4.30079 -3.56988 1.31798 0.0495907 -4.06962 -0.268687 -0.289328 0.0692171
165 1 5.78304 17.093 0.376423 1.97311 1.99329 -0.167527 0.244815 -3.97109 -0.278933 0.0697467 -0.0430666
167 1 8.56005 17.078 0.320365 1.63712 1.01306 -0.622391 4.7785 -4.02388 0.188619 -0.328036 0.506244
175 1 5.70632 20.007 0.450234 -3.42076 -2.85137 2.01629 0.136547 -3.97944 0.0764913 -0.199743 0.358999
177 1 8.58858 20.043 0.666164 -1.05917 0.80188 -0.731301 1.03442 -3.95246 -0.305965 -0.334238 -0.711636
75 1 5.71713 19.9361 -2.69672 -4.53949 -0.9021 2.29786 0.133289 -3.98127 0.0809714 0.314046 -0.547267
65 1 5.67248 17.193 -2.65667 -1.31158 -3.63153 -0.620776 0.339438 -4.02247 0.338766 0.0926818 0.0855656
161 1 14.1852 17.2046 0.552909 -8.06951 -0.86164 0.0732044 0.222652 -4.05408 0.215415 0.302659 -0.236119
68 1 9.83757 18.5862 -1.05577 1.01621 0.95189 3.77626 5.39493 -4.0249 0.809371 0.555601 -0.106326
70 1 12.7582 18.5098 -1.09827 -2.75978 -0.241021 0.901339 0.158568 -3.90663 0.0745277 0.385332 -0.43601
169 1 11.4357 17.1907 0.439156 -0.050047 0.778513 1.36961 0.112305 -3.9709 -0.625314 -0.226035 0.236167
179 1 11.4548 19.9395 0.528881 0.478562 4.61523 -0.247094 0.252579 -4.0099 -0.277229 0.0034809 -0.280314
69 1 11.3235 17.1806 -2.59556 2.51938 -0.439877 2.89062 0.224506 -3.97534 0.482567 -0.285292 -0.219587
71 1 14.189 20.001 -2.58856 -3.02828 1.71166 0.793185 0.310688 -3.86955 -0.0455828 -0.599728 -0.239107
61 1 14.2026 17.0274 -2.6309 -2.79754 0.110739 5.17862 0.30212 -3.93369 0.21895 0.0459957 0.0454068
72 1 1.54936 21.3951 -1.1851 2.3338 -3.4761 -2.56089 0.179026 -4.05306 -0.184996 0.0205649 -0.0591256
74 1 4.24289 21.3195 -1.04906 -0.775897 2.76848 -0.309503 0.378385 -4.11533 0.743237 -0.14217 -0.0928117
82 1 1.5098 24.075 -1.26114 -0.197856 1.54937 -4.05427 0.298493 -4.03268 -0.307678 0.711408 -0.398628
84 1 4.24694 24.1216 -1.1075 1.75243 2.83472 -4.12876 0.400949 -3.9464 0.594238 0.536013 -0.272284
181 1 0.128659 22.763 0.385188 -3.03311 -1.67311 -0.629939 0.0479237 -4.02975 0.0940413 -0.571187 -0.111575
183 1 2.89382 22.7594 0.340732 0.572942 -1.11899 -0.365379 0.167357 -4.0644 -0.269079 0.386847 0.316402
76 1 7.14056 21.2635 -1.13495 -0.691281 0.193514 1.05787 5.3948 -3.87732 0.479405 0.534074 0.345264
86 1 7.25436 24.2668 -1.1322 -2.43118 3.29649 -1.15762 5.72591 -3.88216 0.210534 -0.433406 0.0775989
185 1 5.72509 22.8979 0.346039 3.67767 -2.14848 -3.35625 0.475953 -4.01012 0.27997 -0.939288 0.250372
187 1 8.47118 22.692 0.525383 -0.732136 -0.532565 -1.73565 5.23575 -3.98777 0.011864 0.39784 -0.187287
78 1 9.92402 21.3232 -1.19303 -2.14879 -1.2859 1.20999 0.228172 -3.99837 -0.157249 0.101668 0.918525
80 1 12.7264 21.3466 -1.11459 -2.02506 0.894117 1.33119 0.0648989 -3.95109 0.751181 0.292715 -0.410472
88 1 9.99398 24.1702 -1.08954 -1.34963 2.3224 -3.76156 0.209029 -3.98392 -0.172958 0.151453 -0.164943
90 1 12.8226 24.1983 -1.22765 -3.32555 -1.34099 0.789537 0.184362 -3.93996 -0.324655 -0.138278 0.135385
189 1 11.404 22.6532 0.366274 1.1462 2.87937 3.03823 0.291295 -3.90899 0.255311 0.766787 -0.127905
92 1 1.49183 27.0716 -1.14613 -1.55268 0.823337 -0.21304 0.0694674 -3.95152 -0.476801 -0.474269 0.229313
93 1 2.95679 25.6072 -2.6861 -2.98218 -1.24306 2.03838 0.174351 -3.9692 -0.156009 0.0488413 -0.200819
94 1 4.31233 27.0701 -0.980909 -2.42482 -0.468398 -1.32983 0.698965 -3.94076 -0.099308 0.244549 -0.230781
193 1 2.87926 25.4829 0.356213 -1.0862 0.475835 1.41936 0.419032 -3.94338 -0.245295 0.900192 0.0744919
5 1 5.72241 28.2956 -2.62235 2.69086 -0.906142 0.0342517 5.11711 -3.98387 -0.125798 0.502273 -0.682192
107 1 8.62684 28.3911 0.468305 1.62718 -2.83475 -3.52836 0.300144 -4.04807 -0.203371 1.03678 -0.297718
96 1 7.19496 27.0059 -1.14381 3.8854 -2.09663 -3.2721 0.0390127 -4.04045 -0.171 0.234374 0.375234
195 1 5.7699 25.6353 0.37192 -1.7019 -1.17403 1.74296 0.137321 -3.92424 -0.0757001 0.0765962 0.543512
197 1 8.65402 25.6862 0.427129 -0.592902 -0.620959 0.00800132 0.324709 -4.0381 -0.624466 -0.201979 0.455156
7 1 8.51249 28.4072 -2.6003 0.305773 -1.36188 3.04787 0.349204 -3.97479 -0.0812186 0.0813078 -0.627386
191 1 14.1954 25.5315 0.381566 -0.0885336 -4.4938 -0.48509 0.208566 -3.91201 0.39705 0.175714 -0.6891
98 1 9.85719 27.0277 -1.19008 2.60699 4.64685 0.62246 5.51933 -4.0794 0.98775 -0.215528 -0.299449
100 1 12.8111 27.1397 -1.1327 0.688756 2.41483 -3.36628 0.111195 -3.9684 0.176541 -0.403724 -0.0933514
199 1 11.3947 25.7747 0.428775 -1.77748 -0.753815 0.440887 0.585642 -3.92415 0.675944 -0.635587 -0.0606578
99 1 11.3966 25.6653 -2.64147 -3.11862 -0.640777 0.494149 0.141553 -4.00235 -0.365023 -0.424227 -0.074008
102 1 1.43258 1.58866 2.02625 7.38627 -3.29026 1.48818 0.297484 -4.04182 0.282987 0.0388019 0.0685438
104 1 4.40471 1.70471 1.93244 -2.62904 -0.431866 -2.50035 0.233467 -3.96553 -0.729173 0.0646075 -0.118752
202 1 1.64591 1.56967 5.01527 2.02744 3.5456 -1.59179 4.6621 -4.03693 -0.655392 0.860524 0.179197
203 1 2.94499 0.259696 3.52231 -1.3304 -3.48688 0.0854903 0.129894 -4.05445 0.0854309 0.398726 -0.354691
204 1 4.18458 1.68524 5.09967 -0.935437 1.48785 2.63114 4.5915 -3.99944 0.843273 -0.448617 -0.301008
213 1 2.88677 3.08084 3.48671 -2.28947 -0.845795 -1.07431 0.35942 -4.02468 0.0220288 -0.359268 -0.307178
106 1 7.15632 1.63052 1.91678 0.736671 -1.16949 0.0239501 0.246721 -4.06403 0.183522 0.637097 0.858939
205 1 5.64874 0.299036 3.38257 2.33469 0.995414 0.291621 4.69019 -3.91663 0.47806 -0.676495 1.05761
206 1 7.2548 1.68985 5.05964 -1.46106 -1.55409 1.7364 4.83981 -3.95929 -0.300651 -0.32246 -0.21168
207 1 8.58474 0.236208 3.60113 1.31666 3.04051 1.49325 0.154297 -3.96816 0.0176057 0.092234 -1.05126
215 1 5.78167 2.95842 3.65556 -1.49422 -2.50707 3.51511 0.530666 -3.97178 -0.254545 0.499868 -0.289685
217 1 8.60442 3.0921 3.54638 -1.80041 2.92479 -5.24384 0.122638 -4.02614 -0.255192 -0.157551 0.193374
201 1 14.2143 0.277593 3.6049 -0.76465 1.66164 -3.30675 0.323699 -4.01363 -0.154336 -0.0323071 0.0893422
211 1 14.1953 3.09372 3.66086 0.131749 -3.47244 0.658656 0.277789 -3.95551 0.519841 -0.583118 0.00850649
108 1 9.98023 1.81548 2.04867 1.78008 -0.0382443 0.481447 5.64717 -3.91024 0.261725 -0.994798 -0.179373
110 1 12.7567 1.63776 1.9552 0.143622 0.261967 0.471904 0.163072 -3.89458 0.233015 0.232194 0.43412
219 1 11.4042 3.08595 3.57211 2.96876 -3.6 -0.306264 0.0661448 -3.94729 0.00481261 0.151421 0.156114
112 1 1.47335 4.44722 2.11297 -2.08488 5.53109 1.88305 0.245872 -3.95682 0.015123 0.782407 -0.036962
114 1 4.45714 4.53943 2.12583 0.408107 -1.46821 1.68028 5.20655 -4.03001 0.0179954 -0.657799 0.0118168
122 1 1.5387 7.19477 2.07894 -2.178 2.10286 -1.52883 0.267593 -3.8939 -0.152947 0.188748 -0.145728
124 1 4.30599 7.3213 2.05546 -1.70609 -0.894295 0.386355 0.159745 -3.94892 0.318583 0.22056 -0.123491
223 1 3.00176 5.86832 3.61298 -2.9209 -3.41332 -1.19244 0.120234 -4.01784 0.220739 0.0600678 -0.00468359
116 1 7.08446 4.43511 2.0559 -0.717838 -0.661302 1.69127 5.31248 -4.00594 0.654526 0.272884 -0.116028
126 1 7.33953 7.39572 2.03412 1.37971 -3.46356 0.697126 0.49854 -3.89786 -0.446946 -0.24175 -0.105705
216 1 7.15048 4.45322 5.01674 0.663868 1.20315 1.59813 0.349005 -4.05453 -0.0427898 0.418586 0.31837
225 1 5.7941 6.05956 3.52492 0.299468 -1.75276 -1.18853 5.60453 -3.96409 -0.312204 -0.513013 0.419331
227 1 8.61587 5.8789 3.53173 -0.532809 -0.371899 0.126652 0.137212 -3.97607 -0.339919 0.102022 0.202995
221 1 14.1524 5.86373 3.62753 0.796103 -1.93786 -0.0692733 0.130853 -4.00765 0.0727947 0.542047 -0.126329
118 1 10.0291 4.4796 2.01761 -2.00022 0.251406 -1.34662 0.10522 -4.05404 -0.282081 0.329022 -0.0362836
120 1 12.7727 4.51546 1.95157 -2.93314 -0.0391201 0.674702 0.118325 -4.01322 -0.160648 -0.0618574 0.156097
128 1 10.0124 7.32217 1.96729 -2.7644 2.28321 3.1472 0.134318 -4.03855 -0.377121 0.292027 0.200871
130 1 12.7448 7.26336 1.9734 -1.8326 -3.86476 -3.53257 0.168098 -4.02831 0.181936 0.00279999 0.0725852
218 1 9.92391 4.44006 5.13299 2.54663 2.02038 1.45237 0.0891738 -4.03455 0.138168 0.329483 0.399654
220 1 12.7806 4.44772 5.12451 -0.879614 -1.25736 1.20844 0.064833 -3.90559 0.0277453 -0.0342053 0.313288
229 1 11.2652 5.91426 3.60665 0.58398 1.74186 -1.1864 0.303658 -4.02511 1.12127 0.227098 0.109504
230 1 12.8446 7.35538 5.04717 2.31232 0.678649 1.21522 0.2794 -3.98355 -0.346931 -0.579889 0.467457
132 1 1.49806 10.2454 1.93232 0.926583 1.77752 2.20689 0.206371 -3.97743 0.0354649 -0.4211 0.482638
134 1 4.33421 10.2257 2.074 -1.95039 -2.01599 -1.69927 5.44586 -3.94902 0.277635 -0.373726 0.468505
233 1 2.86938 8.7146 3.63021 -0.683116 0.194601 5.31636 0.147437 -3.91239 0.496546 0.0289229 -0.531126
234 1 4.30212 10.2221 5.13086 -0.621179 0.157015 -0.123602 5.47175 -3.9815 0.762994 -0.494591 -0.0300421
241 1 0.149986 11.5192 3.5264 -2.41095 0.904273 -0.0212207 0.0944725 -4.01755 -0.0870645 -0.301167 0.0139014
243 1 2.87755 11.525 3.47184 -0.234391 0.744033 0.670144 0.255878 -3.98858 0.219065 0.0290069 0.339741
136 1 7.34978 10.1327 2.05061 0.629619 0.98562 1.20116 5.03811 -4.04425 -0.618477 0.422204 0.0324188
235 1 5.87066 8.81598 3.49661 0.465343 -1.43871 1.4062 0.392237 -3.99588 -0.778333 -0.294921 0.0388978
237 1 8.63235 8.75913 3.72731 2.56455 0.935182 0.542097 0.388751 -4.08171 -0.358099 0.17722 -0.572221
245 1 5.87987 11.5851 3.56349 0.240801 -0.541356 -0.243051 0.425104 -3.98632 -0.496963 -0.246716 -0.169912
247 1 8.6244 11.498 3.67653 0.432483 -3.51449 2.45946 0.203157 -4.06678 0.239778 0.574298 0.115312
231 1 14.2058 8.74973 3.52533 -0.187028 1.52542 1.17023 0.0874006 -4.0315 0.57937 -0.0395496 -0.32471
138 1 9.92992 10.142 1.98123 -1.64946 -2.47072 4.24093 5.29085 -4.07948 0.69236 -0.50591 0.361199
140 1 12.8378 10.2224 1.98969 -3.06779 0.590986 0.953237 0.198894 -4.04178 -0.33011 -0.409497 0.306053
239 1 11.364 8.67474 3.53297 1.07823 -1.10089 5.00007 0.101626 -4.02838 0.520564 0.0955043 -0.3265
240 1 12.788 10.0949 4.97464 0.473313 1.12475 -2.36237 0.397846 -3.92688 0.0369396 0.254851 0.828255
249 1 11.3994 11.5636 3.66536 0.00818624 4.09037 -1.73351 0.260666 -4.01361 -0.293651 0.00920131 -0.05523
142 1 1.52181 13.0509 2.09626 -1.28477 -4.17543 2.9049 0.365272 -4.0274 -0.183295 0.17753 -0.317677
144 1 4.29805 12.8216 1.92157 1.81958 -2.20134 0.0142737 4.93343 -3.97194 0.841601 0.461231 0.572799
152 1 1.51339 15.8576 2.07113 -0.669006 2.84052 -0.820189 5.3988 -4.08848 0.343246 -0.678402 -0.264247
154 1 4.25725 15.7179 1.98151 2.46855 -1.35996 -1.82568 0.309303 -3.97795 0.848854 0.174406 -0.265471
242 1 1.53992 12.9165 5.09873 0.280113 3.4737 -1.1283 0.125332 -4.04461 0.477962 0.420965 0.0015591
244 1 4.24982 12.7782 5.12671 2.14938 -0.0921022 -0.749942 5.39753 -3.99045 0.19708 0.296178 0.111417
251 1 0.128475 14.4623 3.62998 2.68999 -0.1114 0.508103 0.230587 -3.98122 -0.463587 -0.114873 -0.367763
252 1 1.63436 15.7834 5.0067 -3.12021 0.366244 0.726554 4.67617 -3.94485 -0.299732 -0.134198 0.0621344
253 1 3.02926 14.3678 3.60346 0.643288 -2.70259 -2.00417 0.363005 -3.97138 -0.0687162 -0.117568 0.175911
146 1 7.13468 12.9886 1.99661 1.04428 0.1527 -2.62964 0.133143 -3.86428 0.843093 -0.178491 0.295362
156 1 7.1141 15.8395 2.02491 -5.45427 -4.00032 2.42238 0.29862 -3.99417 0.0990161 0.195411 0.325144
255 1 5.79332 14.3612 3.51637 0.949383 2.2935 -3.25327 0.183913 -3.98669 -0.374311 -0.0337665 0.135344
256 1 7.19239 15.8423 5.02943 -0.861153 0.781607 -0.146585 0.39391 -4.0247 0.645017 -0.806917 0.00826854
257 1 8.60857 14.4287 3.62076 -2.00567 3.54744 2.76289 0.0753013 -3.97532 -0.415758 -0.685482 -0.523414
148 1 10.0789 12.8625 2.09888 2.53119 -0.204599 1.59625 5.27108 -3.9568 -0.622876 0.441008 0.0547044
150 1 12.8144 12.9078 2.0633 0.842405 -1.04171 -0.584461 0.162232 -4.05323 0.637286 0.0920714 0.2907
158 1 10.0599 15.8093 2.08098 1.95172 -4.28031 -2.67566 0.264156 -3.94285 -0.0305024 -0.197639 -0.130039
160 1 12.7974 15.8078 1.97651 2.05154 2.79304 -0.0709358 0.202443 -3.98658 0.00583901 -0.274716 0.415041
250 1 12.9049 12.9601 5.07695 1.45982 -1.9964 -1.75047 0.275046 -4.02069 -0.268208 -0.0541176 -0.135684
259 1 11.5154 14.2983 3.56186 2.36546 0.76793 -0.871017 0.269315 -4.02102 -0.613599 0.744098 0.0055881
162 1 1.61205 18.4318 2.01001 0.103087 0.473685 0.329909 5.1221 -3.99204 -0.115151 0.456745 0.208415
164 1 4.41893 18.6151 1.89088 -0.211573 3.22505 -5.20284 0.359089 -3.99101 -0.272803 -0.672286 -0.169264
262 1 1.64124 18.6991 5.11487 -1.57751 0.894061 -4.43727 5.12889 -4.02003 -0.498362 -0.337133 -0.157505
263 1 3.02324 17.1738 3.54793 -2.37006 -0.133771 0.32695 0.271334 -4.03056 -0.155948 0.311189 0.229532
271 1 0.239882 19.931 3.4522 -2.9132 -1.24747 -1.34561 0.613256 -4.00734 -0.291217 0.333759 -0.169872
273 1 3.06119 20.0027 3.56471 0.40391 -0.0741893 3.19324 5.51146 -3.99844 0.102087 0.433029 -0.19641
166 1 7.16241 18.5363 1.99091 0.698547 0.150344 -2.49931 0.186674 -4.0337 0.172428 -0.412583 0.0642795
265 1 5.71847 17.1429 3.68918 -1.6126 -0.82668 -3.54668 0.458587 -4.00839 -0.580952 0.331293 -0.292487
266 1 7.25348 18.553 5.03073 1.95445 3.37989 -0.145865 5.03573 -3.92812 -0.263203 0.105832 0.224757
267 1 8.63962 17.1234 3.48676 1.62128 1.24999 -1.44411 0.273153 -3.97385 -0.129047 0.496122 0.286358
275 1 5.66392 19.9514 3.57126 0.0670137 -1.38317 -3.87798 5.19546 -3.99831 0.292795 -0.0632009 0.0260414
277 1 8.52362 20.0544 3.56011 0.898333 -0.0775842 -0.479706 0.26003 -4.02631 0.362934 0.220665 -0.178765
261 1 14.1769 17.1487 3.64439 3.22524 -0.724689 1.23685 0.360125 -4.03801 0.071717 0.288481 0.307043
168 1 9.9888 18.5753 2.03546 -3.61858 0.233632 -1.83299 0.217777 -3.95912 -0.32886 -0.576862 -0.000812961
170 1 12.8038 18.6463 2.14568 0.900172 4.64776 -2.52583 0.343976 -4.02779 0.165877 -0.630573 -0.262794
269 1 11.4148 17.1891 3.75452 1.22914 3.37173 -1.05524 0.413962 -3.98995 0.518523 0.629691 -0.741364
270 1 12.909 18.7314 5.12034 -1.75346 -1.91228 -0.862528 5.42161 -3.9686 -0.473771 -0.234241 0.241691
279 1 11.3598 20.0486 3.53737 2.0114 -4.45816 0.994583 0.275802 -3.94194 -0.150587 -0.278181 0.294469
172 1 1.47279 21.4257 2.03868 2.33301 -0.225112 2.95214 0.281565 -4.00731 0.559767 -0.0884923 0.157915
174 1 4.32705 21.4567 1.8794 -1.27528 -0.710527 -1.51037 0.284333 -4.01406 -0.27666 0.0265887 0.24628
182 1 1.5749 24.1646 1.98921 -0.784188 -3.79054 -2.16947 0.0654071 -4.02752 -0.255265 0.086927 0.128032
184 1 4.3073 24.238 1.94486 -0.587332 0.565944 -1.32797 0.146179 -4.00423 0.0155479 -0.244022 -0.384065
272 1 1.50093 21.4332 5.03679 -1.3891 0.701157 2.48604 0.385636 -4.06058 0.2216 -0.408765 0.532004
281 1 0.183488 22.7914 3.62682 -2.74019 0.616667 0.622568 0.163673 -3.95293 0.0155334 0.0563837 -0.116557
283 1 2.92311 22.8102 3.64529 1.18139 2.06881 4.32688 0.185884 -3.94332 0.800691 0.285131 -0.213623
176 1 7.06694 21.3141 2.06019 -3.95137 -1.5893 -1.01736 0.397671 -4.01651 0.350213 0.0961453 -0.721575
186 1 7.17879 24.1447 1.89331 2.78581 2.06017 1.88695 0.197306 -3.92069 -0.139136 0.565664 -0.0775218
285 1 5.85589 22.7635 3.43109 1.31531 1.02106 -0.50399 0.563586 -3.93939 -1.01584 0.729684 0.905991
287 1 8.6565 22.7436 3.47872 2.42 3.87829 -0.705154 4.92559 -4.10232 -0.569041 0.0865777 0.0916458
178 1 9.99102 21.4199 1.94976 -1.13098 -1.50552 3.15931 0.253761 -4.04111 0.582451 -0.381067 -0.207834
180 1 12.8404 21.4228 2.087 -0.471497 0.0061306 0.269058 0.307856 -4.11975 -0.0955401 0.47731 0.48676
188 1 10.0407 24.0693 1.84009 -1.30348 -2.27273 0.479064 4.82841 -3.9097 -0.291679 1.17809 -0.4035
190 1 12.925 24.1389 1.9604 -1.55903 -2.12372 1.13416 5.5862 -3.90339 -0.886907 0.390823 0.336737
280 1 12.8739 21.3633 5.05135 1.61778 1.13426 1.57654 5.62469 -4.04078 0.184305 0.340329 0.116418
289 1 11.3072 22.8471 3.56567 -3.96248 4.07387 -0.259648 0.497182 -4.02418 0.36212 -0.0486555 0.333182
290 1 12.8777 24.1232 5.1093 1.06046 -1.98762 3.24564 0.239879 -4.01922 -0.414096 0.276288 0.0173005
192 1 1.54582 26.9795 2.02317 0.832332 -0.820942 0.130328 0.15027 -4.03821 -0.0920376 0.138593 -0.253037
194 1 4.33343 27.1078 1.96389 -1.61671 -3.20912 1.28134 0.253535 -3.98487 -0.0876683 -0.402808 -0.330927
291 1 0.123486 25.6243 3.68714 -1.91934 -0.395923 -0.219087 0.401377 -3.95149 -0.0253081 -0.168174 -0.0413116
292 1 1.58125 27.1181 5.02184 0.521729 -0.104332 -0.21211 0.28159 -4.04983 0.136754 -0.291116 0.286636
293 1 3.0799 25.6086 3.53675 2.80973 1.17343 -0.298043 5.84531 -3.93295 -0.772932 0.132522 0.708084
294 1 4.2495 27.1204 5.10159 -1.17778 2.9951 1.58236 0.254555 -3.97782 0.557296 -0.259849 0.0163668
196 1 7.3038 27.0489 2.11036 3.37805 -2.98627 4.17109 4.88934 -3.94445 -0.758812 -0.0349151 -0.526569
295 1 5.73558 25.636 3.51519 2.43808 0.681994 -1.51506 0.163456 -3.99833 0.336461 0.0789436 0.273638
296 1 7.17419 27.0665 5.01133 0.309675 6.50899 -1.89168 0.256801 -3.92305 -0.189471 0.155727 0.0547545
297 1 8.56397 25.5256 3.56323 -0.134748 1.31643 -3.31811 0.355941 -3.99108 1.00923 0.0975459 -0.249632
209 1 11.3537 28.3011 3.6325 -0.393176 -1.47754 0.78913 5.89402 -3.87842 0.717284 0.471233 -0.834085
198 1 9.95313 27.0869 1.89982 0.689763 -0.698924 -1.31982 5.14774 -3.86558 0.523435 -0.449426 0.602504
200 1 13.0099 27.0067 1.95553 5.30296 -0.270392 0.651806 5.51042 -3.92246 -0.591423 0.338159 0.152193
299 1 11.357 25.6421 3.60723 0.613569 6.18239 1.53807 6.23439 -3.89055 0.327121 -0.00708185 -0.389974
301 1 0.190771 0.330155 6.56197 0.5675 -0.168496 -2.46061 4.91993 -4.05396 -0.216113 -0.668122 0.314859
302 1 1.52998 1.64637 8.39686 -1.42736 -3.15682 0.972455 0.309708 -4.00669 -0.207881 -0.319734 -0.197255
303 1 2.87995 0.257353 6.72115 0.341516 -0.0404191 -2.60214 0.187285 -4.05032 0.0672225 -0.469678 0.15577
304 1 4.29008 1.6221 8.2327 -4.04083 -0.468429 4.02966 0.157495 -3.94264 -0.114698 0.738165 0.346481
311 1 0.149724 2.85167 6.71256 -1.74976 0.28104 0.763369 5.20854 -3.92705 -0.057481 1.1095 -0.604899
313 1 2.89377 2.99568 6.59532 0.148637 -0.416692 -0.495992 0.359815 -3.92322 -0.194947 0.261756 0.404336
305 1 5.63949 0.272746 6.71669 -2.6762 0.601797 -1.53878 5.07123 -3.88549 0.781782 0.0706188 -0.599811
306 1 7.16827 1.7968 8.26307 -0.497955 1.38302 -0.554626 5.78683 -3.90897 -0.611341 -0.444946 0.141537
307 1 8.54451 0.339894 6.76259 2.06573 -1.47317 -0.377265 0.329945 -4.01223 -0.37152 -0.658425 0.132847
315 1 5.88369 2.98404 6.63019 0.746495 3.22544 0.384377 5.26916 -4.00334 -0.682186 0.332516 0.484924
317 1 8.5575 3.091 6.6315 0.877774 1.33708 0.284955 0.0770454 -4.12381 -0.50015 0.350118 0.319026
208 1 9.93587 1.5992 5.15196 -2.11946 3.54369 -4.60115 0.124546 -4.09318 0.351599 0.246022 0.289789
210 1 12.7168 1.62492 5.18132 1.93469 -2.84729 3.21644 0.358557 -3.9638 0.197548 -0.249742 -0.473714
308 1 9.85407 1.73124 8.21831 -3.32365 0.641461 0.348771 0.207564 -3.99061 0.343335 -0.401665 -0.227986
309 1 11.427 0.271834 6.76042 2.261 -0.338001 1.59023 0.153764 -3.98136 -0.350201 0.0143756 0.0653034
310 1 12.8338 1.67333 8.2403 -2.12593 2.9352 -1.91821 0.172648 -3.97016 -0.0118407 -0.267407 0.115368
319 1 11.2832 3.0542 6.72047 1.40137 -1.12676 -0.599603 0.109922 -4.02837 0.714478 0.282671 -0.203009
212 1 1.5107 4.56417 5.15835 1.71349 1.1107 -0.37813 5.43542 -4.01581 0.285508 -0.618398 0.167255
214 1 4.35594 4.34938 5.17711 -3.60792 0.888428 1.10906 4.95008 -3.97964 0.216534 0.812283 -0.832549
222 1 1.54559 7.23945 5.13613 2.60978 -1.28947 -2.65909 0.158413 -4.02839 -0.563812 -0.0311942 -0.0834517
224 1 4.45542 7.31972 5.1733 2.28078 -2.16034 3.83898 0.302833 -3.96782 -0.460638 0.133574 -0.636362
312 1 1.51633 4.46751 8.1945 6.58074 -1.87872 -2.48992 0.25016 -4.00829 0.493842 -0.130518 0.155281
314 1 4.38482 4.47065 8.31333 1.38421 -0.500902 1.94911 0.160542 -3.9217 0.141676 -0.522131 -0.487018
322 1 1.50912 7.24612 8.18023 2.77664 -2.04083 2.3912 0.112236 -3.98868 0.0796803 -0.379965 0.0963346
323 1 3.05231 5.91185 6.6447 -1.31866 2.39502 -0.268551 0.26524 -3.97962 -0.189062 0.0330709 -0.0523955
324 1 4.3708 7.29584 8.20882 1.4459 0.563605 -1.51929 0.128567 -4.00809 0.108639 0.0154713 -0.264036
226 1 7.22143 7.27669 5.13901 -1.92098 2.73055 -2.00716 0.111932 -4.04288 0.314978 0.374835 0.365607
316 1 7.10763 4.57462 8.24818 2.31643 -3.52172 -0.258836 0.359963 -4.02636 -0.0562591 -0.883185 -0.184636
325 1 5.76431 5.8264 6.58513 -2.43851 2.57701 -2.10025 0.260715 -3.99699 -0.186235 0.337622 0.0852998
326 1 7.19795 7.24786 8.15883 -1.71798 -0.00966545 0.572563 0.265028 -4.05302 -0.450612 0.522952 -0.215238
327 1 8.55272 5.78657 6.79308 -1.12912 -0.410511 1.0442 0.537081 -3.98707 -0.00673022 0.329629 -0.533314
228 1 9.92162 7.27115 5.22065 0.0778168 -0.255412 1.79302 0.264747 -4.01306 -0.0974017 0.181415 0.0694007
321 1 14.1448 5.82456 6.68493 4.06995 0.134137 -0.309495 0.200271 -3.98395 0.190713 0.235531 -0.34594
318 1 9.98504 4.43593 8.2128 1.75132 -4.65897 3.2673 0.0889769 -4.02101 -0.281265 0.664114 0.25389
320 1 12.7757 4.48205 8.21976 1.89733 -3.11783 2.82706 0.187853 -3.95796 0.0851831 -0.870337 0.10694
328 1 10.0129 7.28399 8.09167 2.65819 -0.927283 -2.4793 0.509677 -3.98719 0.316725 -0.0427378 0.435754
329 1 11.4291 5.87426 6.66725 1.9858 -1.38951 -0.786356 0.0742453 -4.00707 0.00383438 0.0682422 -0.320764
330 1 12.8425 7.28945 8.24168 -1.97867 0.420953 -1.07444 0.0953324 -4.06604 -0.0104804 0.225233 0.397588
232 1 1.56015 10.1641 5.15315 2.12226 0.0705619 -0.681687 0.216852 -4.03802 -0.101476 0.0867711 -0.479214
332 1 1.46321 10.1244 8.27557 1.59487 2.03124 0.780371 0.278705 -4.00802 -0.0114497 -0.150811 0.183471