ITEM: TIMESTEP
145750
ITEM: NUMBER OF ATOMS
2000
ITEM: BOX BOUNDS pp pp pp
1.0838953229856951e-01 1.4221610467701321e+01
2.1677906459713903e-01 2.8443220935402643e+01
-3.6804457734756246e+00 6.1000445773475185e+01
ITEM: ATOMS id type x y z vx vy vz c_csym c_peratom fx fy fz
2 1 1.62332 1.66863 -2.05516 -0.282889 -3.25185 -0.636516 0.279535 -3.96507 -0.633368 -0.136713 -0.491878
4 1 4.35789 1.61575 -2.13368 0.990702 -5.33602 3.45801 5.98255 -3.95449 0.369888 0.0551319 0.178449
11 1 0.115605 3.14255 -3.6282 0.617832 -0.194419 3.50607 0.245737 -3.88585 -0.0192095 -0.135786 -0.155099
101 1 0.126621 0.284403 -0.475902 -1.57173 1.46596 2.1275 0.153399 -3.99799 0.0467163 0.0846569 -0.0721354
103 1 2.85007 0.270771 -0.41105 0.287695 0.367304 -1.8153 0.248664 -3.8548 0.77608 -0.217577 0.210143
111 1 0.168447 3.08626 -0.447114 -2.2925 0.592843 0.179022 0.13519 -3.95603 0.0212413 -0.00909469 -0.298757
113 1 2.87763 3.13123 -0.386734 -1.71434 2.42111 -1.1208 5.89774 -3.92008 -0.357294 -0.0436182 0.222974
13 1 2.94284 3.10367 -3.65975 -0.0706192 -1.95523 0.774801 0.0760273 -3.88817 -0.0221495 -0.112028 -0.193179
6 1 7.17995 1.58532 -2.06251 -1.53139 -1.81767 -2.43971 0.234418 -3.93775 -0.0795594 0.852777 -0.172975
17 1 8.63608 3.25517 -3.60514 -1.24355 -0.0988133 -0.860341 9.89933 -3.93426 -0.0600978 -0.794644 -0.448132
105 1 5.90739 0.22905 -0.445535 0.812795 -1.48127 -4.16198 0.29649 -3.93991 -0.227695 -0.0469095 -0.0849051
115 1 5.79048 3.13764 -0.461573 -0.932742 0.818202 0.0439582 0.185793 -3.92047 -0.16174 -0.695341 0.333985
117 1 8.60233 3.08029 -0.374142 0.475293 0.415756 -1.302 0.178837 -3.909 -0.30777 0.322085 -0.832537
15 1 5.86915 3.09703 -3.6183 -1.1078 -3.23994 -0.243916 0.304556 -3.85886 -0.54052 0.285597 0.0748705
8 1 9.98472 1.71462 -2.18795 1.02028 2.64764 -1.65962 0.446551 -3.92507 -0.166935 -0.344522 0.439186
9 1 11.3244 0.287262 -3.57126 -0.628437 1.37052 0.162777 0.433882 -3.9199 0.735005 0.0697698 0.0266814
10 1 12.8557 1.68831 -2.1331 -0.261261 2.58464 0.684826 0.147547 -3.90409 -0.50871 0.4146 0.246577
109 1 11.3921 0.306018 -0.47807 4.17545 -4.26001 3.01885 0.173803 -3.91838 -0.267855 -0.543637 -0.0257186
119 1 11.4562 3.11085 -0.536898 -0.877516 0.612354 1.13148 0.164173 -3.96357 -0.338911 -0.671155 -0.198871
12 1 1.52356 4.6359 -2.16633 1.18436 1.40208 1.05812 5.92005 -3.91188 0.23821 -0.693822 0.0545257
14 1 4.34915 4.42365 -1.95405 -0.761965 1.11821 -1.53086 0.282657 -3.97466 0.0491709 0.464706 -0.461962
22 1 1.54026 7.32431 -2.13667 0.529166 1.27637 -0.648244 5.93506 -3.89229 -0.317653 -0.0485644 0.629879
23 1 3.01689 5.92797 -3.65051 4.21453 0.286138 -0.65637 0.228088 -3.8953 -0.522589 -0.183661 -0.323516
24 1 4.35552 7.36387 -2.06061 0.718611 1.41969 0.425215 0.113857 -3.92008 -0.261348 -0.0708561 0.0925588
121 1 0.132435 5.82793 -0.454658 -2.35864 3.10392 -0.471262 0.196247 -3.90715 -0.0145015 0.403612 0.289095
123 1 3.01618 5.86763 -0.351455 1.00139 1.8653 -1.24788 5.90732 -3.93641 -0.409411 -0.233869 -0.363612
16 1 7.14135 4.5226 -1.97702 0.603539 0.154603 0.133915 0.167697 -3.95044 0.231254 -0.236522 0.0165909
25 1 5.70759 5.92495 -3.55265 -0.827089 1.1553 2.35682 5.14365 -3.97502 0.283699 -0.312397 -0.260653
26 1 7.1412 7.16975 -2.1143 -0.0337704 2.62343 0.778117 5.31564 -3.85794 -0.0579024 1.08785 0.337076
125 1 5.74127 5.95799 -0.407715 -0.136011 -2.75282 -0.154075 0.13953 -4.04077 0.0199639 -0.176149 0.206685
127 1 8.57446 5.88387 -0.55445 -1.51658 -3.67076 0.00771245 0.411741 -3.91433 0.477601 -0.109263 0.500029
18 1 10.0587 4.47472 -2.05901 2.01504 1.15568 0.108705 0.222398 -3.94602 -0.113171 0.375307 0.161128
20 1 12.7939 4.54238 -2.09547 -0.022531 3.00342 -1.17168 0.0658687 -3.99928 0.340196 0.144545 0.0975118
28 1 10.1169 7.35391 -1.96234 1.08986 -1.21663 1.80841 5.61944 -3.92188 -0.701882 -0.433287 0.146743
29 1 11.4127 5.98723 -3.6611 1.3822 1.47477 -0.555896 0.0546853 -3.96654 -0.635722 -0.454179 -0.223762
30 1 12.8531 7.28188 -1.99312 0.362699 -0.519128 0.486825 0.13976 -3.9744 -0.250055 0.278525 0.303736
129 1 11.3642 5.90889 -0.39997 -0.995542 1.01394 2.2528 0.114876 -4.00215 0.33757 -0.161211 -0.384744
32 1 1.48279 10.1923 -2.13393 2.66336 -1.18469 0.933482 0.250854 -4.02385 0.174791 -0.59834 0.0141411
34 1 4.32744 10.195 -2.13294 -3.42019 -1.92301 1.41173 0.20592 -3.93329 0.0251849 -0.251092 0.315442
43 1 2.92107 11.628 -3.6561 2.17426 0.782241 3.50485 0.12559 -4.0149 -0.00616492 -0.32274 -0.107126
133 1 2.87707 8.77788 -0.418433 -1.44944 0.975575 0.710255 0.0940225 -3.86636 0.229699 -0.322439 -0.121884
141 1 0.146359 11.6297 -0.542587 -2.20193 -7.04944 -1.51669 0.347989 -3.98782 -0.0258315 -0.0465313 0.263007
143 1 2.92416 11.521 -0.444061 -0.572232 1.1909 1.77002 0.170058 -4.0067 0.061848 -0.0494091 -0.228266
36 1 7.17897 10.1662 -2.00927 0.10168 3.47717 0.174941 0.175794 -3.86254 -0.284658 -0.379411 -0.0788593
47 1 8.63625 11.4798 -3.56831 -1.46078 2.66256 0.234251 0.303506 -3.94352 -0.00214377 -0.0176001 -0.561101
135 1 5.71447 8.72482 -0.335598 -0.880733 0.590278 -0.109653 5.83722 -3.89282 0.365172 0.223681 -0.0134114
137 1 8.61908 8.74613 -0.51443 -4.19951 1.4167 -2.48788 0.387959 -3.95616 -0.192075 -0.0353952 -0.286248
145 1 5.78797 11.4174 -0.441241 0.913579 -3.10787 0.676852 5.8549 -3.90882 -0.0208671 0.5286 0.560036
147 1 8.63173 11.5707 -0.32956 -2.52053 -2.66134 -2.016 0.204562 -3.94981 -0.191431 0.233861 -0.912355
37 1 8.64539 8.6808 -3.53586 -0.410704 1.96136 0.795798 5.55749 -3.99671 -0.102543 0.0896977 0.118439
41 1 14.1834 11.5242 -3.57257 -1.35835 -5.95404 3.83557 0.264161 -3.96802 -0.0635561 0.25577 0.00473385
131 1 14.189 8.78043 -0.312878 -1.59748 2.05417 3.03081 0.440855 -3.87015 0.640757 -0.177439 -0.073418
38 1 10.1092 10.2499 -1.93482 0.647054 3.02786 -2.05404 0.503242 -3.96203 -0.333468 -0.334801 0.344393
39 1 11.3428 8.78317 -3.62343 2.80774 -0.622395 -1.00191 0.224734 -3.95376 0.161413 0.0776824 0.023858
40 1 12.8549 10.1114 -1.91579 -1.75728 -0.634733 -0.267602 0.265325 -3.95286 -0.315284 -0.242866 -0.205185
139 1 11.4119 8.69776 -0.349518 -0.425376 2.4171 -0.0430739 0.114986 -4.00514 0.388702 0.470135 -0.432518
149 1 11.4267 11.5446 -0.348557 -0.904464 -0.906018 0.248794 0.185032 -3.968 0.0397802 0.189227 -0.301511
49 1 11.351 11.4979 -3.59227 -3.94296 -1.72452 -3.57845 0.148244 -3.91416 0.232425 0.00472318 -0.149845
42 1 1.60077 12.9976 -2.15194 -0.841826 -0.173751 0.753914 5.43783 -3.94074 -0.463778 0.317437 0.445116
44 1 4.30049 12.9516 -2.16852 -1.17519 0.372824 -0.13007 6.21951 -4.00836 0.479271 -0.0552131 -0.0315992
52 1 1.58776 15.7356 -1.90139 -0.585983 1.26946 1.71295 5.28381 -3.81352 -0.758079 0.195218 -0.673653
54 1 4.38463 15.6552 -2.06426 0.269637 0.959657 1.9614 0.287241 -3.98525 -0.710515 0.469124 -0.0104261
153 1 2.9946 14.2978 -0.429735 -3.03426 -0.361765 3.65674 0.169496 -3.90964 -0.335498 -0.09456 -0.0461233
46 1 7.13899 12.8477 -2.0911 -0.042375 -0.703018 -2.37022 5.35835 -3.91595 -0.438319 0.275214 0.0511181
56 1 7.08452 15.7726 -2.15059 0.19616 0.505449 -1.21975 0.274849 -3.9948 0.435561 -0.386154 0.18792
155 1 5.76502 14.3443 -0.49185 -0.699273 2.50818 -2.71856 0.105419 -3.94419 0.486037 -0.277294 0.190077
157 1 8.53251 14.4644 -0.400082 1.77519 1.9958 -4.01974 5.31525 -3.9386 -0.279687 -0.489493 0.00831063
57 1 8.49816 14.3386 -3.52698 5.27468 2.46447 0.151665 0.557978 -3.83622 0.235924 -0.0634695 -0.780844
51 1 14.0057 14.3518 -3.67999 5.08997 3.62125 -2.07853 9.71955 -3.85764 1.02934 -0.45806 0.0774873
151 1 14.2009 14.4155 -0.420571 -4.71089 2.01634 -0.85659 0.130703 -3.85824 0.164097 -0.454579 0.0696761
48 1 9.93985 13.0563 -2.03578 2.86016 2.34417 0.701272 5.33785 -3.93664 0.0324565 -0.693393 -0.0610971
50 1 12.7181 12.9904 -2.03873 0.559624 -1.36974 -0.820506 0.188854 -3.94196 0.0018653 -0.223249 0.221364
58 1 9.99316 15.7186 -2.05547 -3.3381 -1.51398 5.38263 0.184548 -3.9896 0.344121 0.216246 0.0175968
60 1 12.7967 15.7437 -2.04932 1.53771 1.90327 -4.70531 0.115777 -3.99442 -0.385332 -0.136206 0.713399
159 1 11.3491 14.3264 -0.365927 -0.265735 -1.65506 -3.98071 0.156605 -3.9504 0.234672 0.120448 -0.210794
62 1 1.43944 18.5161 -2.01057 0.272627 0.831543 -0.200207 0.118287 -3.9037 0.284521 0.543153 -0.0576044
64 1 4.38586 18.6552 -2.00602 1.24428 1.0664 2.86252 5.472 -3.91006 -0.361881 -0.856608 0.45574
163 1 2.94245 17.1558 -0.54405 0.341627 2.40032 0.506019 0.425484 -3.93219 0.241442 -0.0717319 0.499019
171 1 0.141802 19.9783 -0.325373 -0.0590841 -1.37942 4.27312 0.182523 -4.00936 -0.272781 -0.0982766 -0.252559
173 1 2.89555 19.9823 -0.453675 0.785649 -1.23368 2.3689 0.152681 -3.98539 -0.803885 -0.349101 0.470453
66 1 7.24355 18.6165 -2.00687 2.75597 -4.35103 0.905848 4.95106 -3.99662 -0.550692 0.0415721 -0.28208
67 1 8.57677 17.1461 -3.65418 -4.30079 -3.56988 1.31798 0.0496221 -4.02867 0.0729626 -0.0202014 0.33725
165 1 5.78304 17.093 -0.501673 1.97311 1.99329 -0.167527 0.249478 -3.93606 -0.365823 0.453591 0.268427
167 1 8.56005 17.078 -0.559471 1.63712 1.01306 -0.622391 4.89046 -3.97883 0.0281302 -0.245632 0.706059
175 1 5.70632 20.007 -0.425569 -3.42076 -2.85137 2.01629 0.139036 -3.94635 0.205725 -0.203586 0.282453
177 1 8.58858 20.043 -0.202936 -1.05917 0.80188 -0.731301 5.49334 -3.91121 -0.174874 -0.351614 -0.49074
75 1 5.71713 19.9361 -3.67022 -4.53949 -0.9021 2.29786 6.42192 -3.93465 -0.209143 0.0838036 -0.196648
65 1 5.67248 17.193 -3.62893 -1.31158 -3.63153 -0.620776 0.346193 -3.97278 0.00119201 -0.294518 -0.0651547
161 1 14.1852 17.2046 -0.319707 -8.06951 -0.86164 0.0732044 0.229999 -4.014 -0.14491 -0.114105 -0.32695
68 1 9.83757 18.5862 -1.97833 1.01621 0.95189 3.77626 5.54266 -3.97288 0.65548 0.737651 -0.370981
70 1 12.7582 18.5098 -2.02215 -2.75978 -0.241021 0.901339 0.160694 -3.86294 0.243726 0.681243 -0.341488
169 1 11.4357 17.1907 -0.436992 -0.050047 0.778513 1.36961 0.114353 -3.92835 -0.302695 -0.260895 0.355036
179 1 11.4548 19.9395 -0.344481 0.478562 4.61523 -0.247094 6.1554 -3.96654 -0.422114 0.284969 -0.198608
69 1 11.3235 17.1806 -3.56592 2.51938 -0.439877 2.89062 0.233678 -3.92798 0.562467 -0.507785 -0.520229
71 1 14.189 20.001 -3.55871 -3.02828 1.71166 0.793185 0.319528 -3.82966 -0.378008 -0.686186 -0.224115
61 1 14.2026 17.0274 -3.60236 -2.79754 0.110739 5.17862 0.309988 -3.88601 -0.121067 0.151631 0.0169239
72 1 1.54936 21.3951 -2.11167 2.3338 -3.4761 -2.56089 0.183072 -4.01079 -0.410476 -0.460276 -0.162458
74 1 4.24289 21.3195 -1.97142 -0.775897 2.76848 -0.309503 0.391926 -4.07832 0.265653 0.131887 -0.157312
82 1 1.5098 24.075 -2.19008 -0.197856 1.54937 -4.05427 0.305898 -3.98878 -0.202957 0.419201 -0.0346962
84 1 4.24694 24.1216 -2.03166 1.75243 2.83472 -4.12876 0.408645 -3.90853 0.483407 0.372912 -0.00177379
181 1 0.128659 22.763 -0.492636 -3.03311 -1.67311 -0.629939 0.0489091 -3.99355 0.207816 -0.24093 -0.106644
183 1 2.89382 22.7594 -0.538471 0.572942 -1.11899 -0.365379 0.176147 -4.04252 -0.126553 0.35209 0.262949
76 1 7.14056 21.2635 -2.05997 -0.691281 0.193514 1.05787 5.54822 -3.821 0.02051 0.831102 -0.0361844
86 1 7.25436 24.2668 -2.05713 -2.43118 3.29649 -1.15762 5.90024 -3.83283 0.25103 -0.634439 -0.0434682
185 1 5.72509 22.8979 -0.532999 3.67767 -2.14848 -3.35625 0.482763 -3.97502 0.393921 -0.728166 -0.0116996
187 1 8.47118 22.692 -0.348088 -0.732136 -0.532565 -1.73565 5.39953 -3.93967 -0.140354 -0.15938 -0.40564
78 1 9.92402 21.3232 -2.11985 -2.14879 -1.2859 1.20999 0.236293 -3.94642 0.08561 0.278508 0.888849
80 1 12.7264 21.3466 -2.03898 -2.02506 0.894117 1.33119 0.0657417 -3.90964 0.345154 0.00729859 -0.132681
88 1 9.99398 24.1702 -2.01315 -1.34963 2.3224 -3.76156 0.216777 -3.91711 -0.254092 0.279147 0.315233
90 1 12.8226 24.1983 -2.15555 -3.32555 -1.34099 0.789537 0.188785 -3.88546 -0.386032 -0.110279 0.259021
189 1 11.404 22.6532 -0.512136 1.1462 2.87937 3.03823 0.295806 -3.86305 -0.00521493 0.370333 -0.226969
92 1 1.49183 27.0716 -2.07149 -1.55268 0.823337 -0.21304 0.070127 -3.89856 -0.066199 -0.0159683 0.027774
93 1 2.95679 25.6072 -3.65927 -2.98218 -1.24306 2.03838 0.180569 -3.90722 -0.0100667 0.238471 -0.277826
94 1 4.31233 27.0701 -1.90114 -2.42482 -0.468398 -1.32983 0.730091 -3.89816 -0.335046 -0.145756 -0.540236
193 1 2.87926 25.4829 -0.522509 -1.0862 0.475835 1.41936 5.70472 -3.90988 0.160216 0.623149 -0.20922
5 1 5.72241 28.2956 -3.59355 2.69086 -0.906142 0.0342517 5.2242 -3.94018 -0.290773 0.40256 -0.588573
107 1 8.62684 28.3911 -0.406938 1.62718 -2.83475 -3.52836 5.78867 -4.00568 -0.269927 0.60175 -0.534996
96 1 7.19496 27.0059 -2.0691 3.8854 -2.09663 -3.2721 0.0400965 -4.00802 -0.375699 -0.255098 0.515769
195 1 5.7699 25.6353 -0.506316 -1.7019 -1.17403 1.74296 6.03693 -3.86367 0.14754 0.197522 0.138967
197 1 8.65402 25.6862 -0.449393 -0.592902 -0.620959 0.00800132 0.329943 -4.00266 -0.75546 -0.400289 0.294587
7 1 8.51249 28.4072 -3.57081 0.305773 -1.36188 3.04787 0.363045 -3.93996 0.226888 -0.0322092 -0.344248
191 1 14.1954 25.5315 -0.49637 -0.0885336 -4.4938 -0.48509 0.209645 -3.87161 0.203244 0.0624928 -0.595167
98 1 9.85719 27.0277 -2.1168 2.60699 4.64685 0.62246 5.65196 -4.03592 0.711555 -0.220329 -0.233561
100 1 12.8111 27.1397 -2.05764 0.688756 2.41483 -3.36628 0.112071 -3.91967 0.261857 -0.0514525 -0.421174
199 1 11.3947 25.7747 -0.447695 -1.77748 -0.753815 0.440887 0.589715 -3.87563 0.713585 -0.119035 -0.552737
99 1 11.3966 25.6653 -3.61326 -3.11862 -0.640777 0.494149 0.144302 -3.95476 0.101536 0.0696403 0.25643
102 1 1.43258 1.58866 1.19938 7.38627 -3.29026 1.48818 0.300265 -4.00574 0.342811 0.0912264 0.137158
104 1 4.40471 1.70471 1.10266 -2.62904 -0.431866 -2.50035 0.238077 -3.90476 -0.231741 0.308281 -0.212211
202 1 1.64591 1.56967 4.28119 2.02744 3.5456 -1.59179 4.78259 -4.01626 -0.822999 0.690478 -0.120233
203 1 2.94499 0.259696 2.74189 -1.3304 -3.48688 0.0854903 0.131501 -4.02644 -0.00335406 -0.147272 -0.775135
204 1 4.18458 1.68524 4.36821 -0.935437 1.48785 2.63114 4.72549 -3.96698 1.19399 -0.524236 -0.329243
213 1 2.88677 3.08084 2.70517 -2.28947 -0.845795 -1.07431 0.369005 -3.9796 0.359683 -0.0848994 0.184512
106 1 7.15632 1.63052 1.08651 0.736671 -1.16949 0.0239501 0.255598 -4.02428 0.271258 0.566731 0.766589
205 1 5.64874 0.299036 2.5978 2.33469 0.995414 0.291621 4.79149 -3.8718 0.388329 -0.140757 0.56015
206 1 7.2548 1.68985 4.32694 -1.46106 -1.55409 1.7364 4.95544 -3.91663 -0.218672 -0.823396 0.176509
207 1 8.58474 0.236208 2.82314 1.31666 3.04051 1.49325 0.16019 -3.93262 0.448587 -0.13841 -0.521828
215 1 5.78167 2.95842 2.87926 -1.49422 -2.50707 3.51511 0.544422 -3.92437 -0.130927 0.373901 -0.283687
217 1 8.60442 3.0921 2.7667 -1.80041 2.92479 -5.24384 0.123652 -3.9975 -0.414191 0.0133279 -0.20572
201 1 14.2143 0.277593 2.82704 -0.76465 1.66164 -3.30675 0.330724 -3.96929 -0.546892 -0.387689 -0.0233439
211 1 14.1953 3.09372 2.88474 0.131749 -3.47244 0.658656 0.290353 -3.89908 0.275346 -0.529525 -0.241871
108 1 9.98023 1.81548 1.22249 1.78008 -0.0382443 0.481447 5.79627 -3.86207 0.341488 -0.968322 -0.0931457
110 1 12.7567 1.63776 1.12612 0.143622 0.261967 0.471904 0.166269 -3.84863 0.0356039 0.399991 0.623878
219 1 11.4042 3.08595 2.79323 2.96876 -3.6 -0.306264 0.0666888 -3.90624 0.139736 -0.220637 0.254697
112 1 1.47335 4.44722 1.28878 -2.08488 5.53109 1.88305 0.255228 -3.91776 -0.0715292 0.835453 0.0208345
114 1 4.45714 4.53943 1.30205 0.408107 -1.46821 1.68028 5.34226 -3.98475 -0.437033 -0.710226 -0.34699
122 1 1.5387 7.19477 1.2537 -2.178 2.10286 -1.52883 0.269417 -3.84317 -0.558137 0.101273 0.0900825
124 1 4.30599 7.3213 1.22949 -1.70609 -0.894295 0.386355 0.161437 -3.92343 -0.143306 0.430618 0.0215135
223 1 3.00176 5.86832 2.83537 -2.9209 -3.41332 -1.19244 0.120611 -3.96981 -0.145972 -0.207653 0.0952587
116 1 7.08446 4.43511 1.22994 -0.717838 -0.661302 1.69127 5.45448 -3.9511 0.544188 0.240266 0.13341
126 1 7.33953 7.39572 1.20749 1.37971 -3.46356 0.697126 5.66248 -3.84838 -0.722822 -0.443422 -0.202075
216 1 7.15048 4.45322 4.2827 0.663868 1.20315 1.59813 0.362473 -4.0114 -0.018554 0.759517 -0.226194
225 1 5.7941 6.05956 2.74458 0.299468 -1.75276 -1.18853 5.73798 -3.91489 0.211532 -0.320741 0.32863
227 1 8.61587 5.8789 2.75159 -0.532809 -0.371899 0.126652 0.141698 -3.93537 0.0939993 -0.0257604 0.0637292
221 1 14.1524 5.86373 2.85037 0.796103 -1.93786 -0.0692733 0.134314 -3.96763 -0.0272261 0.350774 -0.0197445
118 1 10.0291 4.4796 1.19047 -2.00022 0.251406 -1.34662 5.6898 -4.01651 -0.0287183 0.157704 -0.516997
120 1 12.7727 4.51546 1.12238 -2.93314 -0.0391201 0.674702 0.123658 -3.96525 -0.0461706 -0.223759 0.467449
128 1 10.0124 7.32217 1.13858 -2.7644 2.28321 3.1472 5.76263 -4.00304 -0.541413 0.0550655 0.172269
130 1 12.7448 7.26336 1.14488 -1.8326 -3.86476 -3.53257 0.173961 -3.97813 0.507087 -0.144995 0.138014
218 1 9.92391 4.44006 4.40257 2.54663 2.02038 1.45237 0.0900281 -3.98706 0.456279 0.375068 -0.0595239
220 1 12.7806 4.44772 4.39383 -0.879614 -1.25736 1.20844 0.06616 -3.85975 -0.15319 0.0391919 0.474124
229 1 11.2652 5.91426 2.82884 0.58398 1.74186 -1.1864 5.37967 -3.98497 0.85605 -0.0674368 0.299623
230 1 12.8446 7.35538 4.31408 2.31232 0.678649 1.21522 0.28334 -3.94281 -0.512392 -0.79615 0.102218
132 1 1.49806 10.2454 1.10253 0.926583 1.77752 2.20689 0.210221 -3.94361 0.0772511 -0.615838 0.0686725
134 1 4.33421 10.2257 1.24861 -1.95039 -2.01599 -1.69927 5.55285 -3.90797 0.119857 -0.20554 -0.117636
233 1 2.86938 8.7146 2.85313 -0.683116 0.194601 5.31636 0.149438 -3.84888 0.0402595 -0.10628 -0.309173
234 1 4.30212 10.2221 4.40037 -0.621179 0.157015 -0.123602 5.61355 -3.92415 0.587085 -0.196161 0.00633966
241 1 0.149986 11.5192 2.74609 -2.41095 0.904273 -0.0212207 0.0963818 -3.98507 -0.402212 0.129523 0.0287203
243 1 2.87755 11.525 2.68984 -0.234391 0.744033 0.670144 0.266175 -3.95827 -0.170489 -0.285558 0.530849
136 1 7.34978 10.1327 1.22449 0.629619 0.98562 1.20116 5.15998 -4.00995 -0.343044 0.357903 0.0658713
235 1 5.87066 8.81598 2.71539 0.465343 -1.43871 1.4062 0.403596 -3.94562 -0.808409 -0.180152 0.287335
237 1 8.63235 8.75913 2.95324 2.56455 0.935182 0.542097 0.409024 -4.04583 -0.400669 0.00712706 -0.196274
245 1 5.87987 11.5851 2.78434 0.240801 -0.541356 -0.243051 0.426315 -3.9392 -0.18865 0.0375072 -0.0552239
247 1 8.6244 11.498 2.90089 0.432483 -3.51449 2.45946 0.209631 -4.02841 -0.282275 0.480138 -0.00877958
231 1 14.2058 8.74973 2.745 -0.187028 1.52542 1.17023 0.0884399 -3.97941 0.237197 -0.44231 -0.203814
138 1 9.92992 10.142 1.15296 -1.64946 -2.47072 4.24093 5.42183 -4.03451 0.694893 -0.318975 0.0791266
140 1 12.8378 10.2224 1.16168 -3.06779 0.590986 0.953237 0.204087 -3.99335 -0.181051 -0.103198 0.463016
239 1 11.364 8.67474 2.75287 1.07823 -1.10089 5.00007 0.104275 -3.97773 0.369586 0.225506 -0.202184
240 1 12.788 10.0949 4.2393 0.473313 1.12475 -2.36237 5.26654 -3.88992 0.226334 0.151339 0.355805
249 1 11.3994 11.5636 2.88937 0.00818624 4.09037 -1.73351 0.271925 -3.97194 -0.567844 -0.49553 -0.245187
142 1 1.52181 13.0509 1.27156 -1.28477 -4.17543 2.9049 0.377855 -3.96831 -0.0749289 0.131731 -0.486497
144 1 4.29805 12.8216 1.09144 1.81958 -2.20134 0.0142737 5.04796 -3.927 0.589258 0.575824 0.191904
152 1 1.51339 15.8576 1.24565 -0.669006 2.84052 -0.820189 5.54346 -4.04659 0.13826 -0.582557 -0.582835
154 1 4.25725 15.7179 1.15325 2.46855 -1.35996 -1.82568 0.312029 -3.93102 0.585722 0.18695 -0.196076
242 1 1.53992 12.9165 4.36725 0.280113 3.4737 -1.1283 0.130078 -3.9946 0.0969934 -0.0588553 -0.114963
244 1 4.24982 12.7782 4.3961 2.14938 -0.0921022 -0.749942 5.54912 -3.93155 0.0337102 0.146255 0.000822833
251 1 0.128475 14.4623 2.85289 2.68999 -0.1114 0.508103 0.235803 -3.94155 -0.421783 -0.244419 -0.0607957
252 1 1.63436 15.7834 4.27236 -3.12021 0.366244 0.726554 4.77557 -3.90066 -0.202322 0.0712138 0.0282047
253 1 3.02926 14.3678 2.82556 0.643288 -2.70259 -2.00417 0.369745 -3.93927 -0.233312 0.0931794 0.239892
146 1 7.13468 12.9886 1.16882 1.04428 0.1527 -2.62964 0.1341 -3.82953 0.561294 -0.0814082 0.145857
156 1 7.1141 15.8395 1.19799 -5.45427 -4.00032 2.42238 0.304459 -3.95644 0.105993 0.057532 -0.0271715
255 1 5.79332 14.3612 2.73576 0.949383 2.2935 -3.25327 0.188423 -3.9293 -0.753335 -0.0129679 0.55137
256 1 7.19239 15.8423 4.29579 -0.861153 0.781607 -0.146585 0.40802 -3.99739 0.154994 -0.135398 0.290823
257 1 8.60857 14.4287 2.84339 -2.00567 3.54744 2.76289 0.0769188 -3.92493 -0.420862 -0.70918 -0.100179
148 1 10.0789 12.8625 1.27426 2.53119 -0.204599 1.59625 5.38593 -3.91384 -0.531275 0.458016 -0.0167248
150 1 12.8144 12.9078 1.23757 0.842405 -1.04171 -0.584461 0.166097 -4.00786 0.376821 0.236045 -0.17795
158 1 10.0599 15.8093 1.25581 1.95172 -4.28031 -2.67566 0.271797 -3.88688 0.0210955 -0.00962622 -0.288178
160 1 12.7974 15.8078 1.14809 2.05154 2.79304 -0.0709358 0.211602 -3.93723 -0.194384 -0.319607 0.741276
250 1 12.9049 12.9601 4.34478 1.45982 -1.9964 -1.75047 0.286691 -3.97504 -0.0277557 -0.0277623 -0.0550756
259 1 11.5154 14.2983 2.78266 2.36546 0.76793 -0.871017 0.271132 -3.98665 -0.811772 0.513569 0.0101011
162 1 1.61205 18.4318 1.18263 0.103087 0.473685 0.329909 5.27283 -3.9445 -0.338808 0.756888 0.150476
164 1 4.41893 18.6151 1.05981 -0.211573 3.22505 -5.20284 0.371509 -3.94845 -0.524643 -0.591681 -0.153309
262 1 1.64124 18.6991 4.38389 -1.57751 0.894061 -4.43727 5.27464 -3.97264 -0.926799 -0.705046 -0.313514
263 1 3.02324 17.1738 2.76829 -2.37006 -0.133771 0.32695 0.278699 -3.99483 0.146792 -0.00579519 0.261332
271 1 0.239882 19.931 2.66959 -2.9132 -1.24747 -1.34561 0.629355 -3.96611 -0.271304 0.329184 0.0966269
273 1 3.06119 20.0027 2.7856 0.40391 -0.0741893 3.19324 5.65497 -3.94547 -0.340878 0.0695933 0.0525035
166 1 7.16241 18.5363 1.16293 0.698547 0.150344 -2.49931 0.196241 -3.97137 -0.026205 -0.0195324 -0.209229
265 1 5.71847 17.1429 2.91394 -1.6126 -0.82668 -3.54668 4.83152 -3.95619 -0.205878 0.364971 -0.477229
266 1 7.25348 18.553 4.29713 1.95445 3.37989 -0.145865 5.14908 -3.87924 -0.619756 -0.0636708 -0.102689
267 1 8.63962 17.1234 2.70523 1.62128 1.24999 -1.44411 0.281749 -3.9373 -0.0365081 0.672013 0.0288989
275 1 5.66392 19.9514 2.79235 0.0670137 -1.38317 -3.87798 5.26685 -3.94877 0.144037 0.0508108 0.125779
277 1 8.52362 20.0544 2.78085 0.898333 -0.0775842 -0.479706 4.89715 -3.97222 0.316617 0.340178 0.0768951
261 1 14.1769 17.1487 2.86775 3.22524 -0.724689 1.23685 0.365126 -3.99425 0.43416 0.0247675 -0.109039
168 1 9.9888 18.5753 1.20887 -3.61858 0.233632 -1.83299 0.228873 -3.9127 -0.317587 -0.136128 -0.0560324
170 1 12.8038 18.6463 1.32251 0.900172 4.64776 -2.52583 0.357501 -3.99239 0.1846 -0.85986 -0.0101027
269 1 11.4148 17.1891 2.9813 1.22914 3.37173 -1.05524 0.434423 -3.9519 0.290102 0.626586 -0.698537
270 1 12.909 18.7314 4.38953 -1.75346 -1.91228 -0.862528 5.57915 -3.91058 -0.391296 -0.160011 0.237561
279 1 11.3598 20.0486 2.75741 2.0114 -4.45816 0.994583 0.286146 -3.88685 -0.442166 -0.000384344 0.161201
172 1 1.47279 21.4257 1.21219 2.33301 -0.225112 2.95214 0.288577 -3.96462 0.86079 0.11263 -0.212624
174 1 4.32705 21.4567 1.04796 -1.27528 -0.710527 -1.51037 0.294991 -3.96415 0.19474 -0.0187848 -0.16766
182 1 1.5749 24.1646 1.16119 -0.784188 -3.79054 -2.16947 0.0659118 -3.97471 -0.77793 0.0647417 0.217895
184 1 4.3073 24.238 1.11546 -0.587332 0.565944 -1.32797 0.14794 -3.96624 0.410145 -0.230998 -0.287182
272 1 1.50093 21.4332 4.30338 -1.3891 0.701157 2.48604 0.399892 -4.02197 0.297957 -0.441954 0.291497
281 1 0.183488 22.7914 2.84964 -2.74019 0.616667 0.622568 0.171522 -3.92549 -0.451163 0.126208 -0.0988366
283 1 2.92311 22.8102 2.86868 1.18139 2.06881 4.32688 0.195299 -3.89545 0.858186 0.214998 0.008434
176 1 7.06694 21.3141 1.23437 -3.95137 -1.5893 -1.01736 0.402945 -3.99177 0.0482657 0.00662964 -0.179482
186 1 7.17879 24.1447 1.06231 2.78581 2.06017 1.88695 0.202903 -3.88374 -0.0396987 0.82976 0.24653
285 1 5.85589 22.7635 2.64783 1.31531 1.02106 -0.50399 0.583163 -3.88944 -0.773561 0.467589 0.529656
287 1 8.6565 22.7436 2.69694 2.42 3.87829 -0.705154 5.04668 -4.04248 -0.438314 0.0896629 0.0166487
178 1 9.99102 21.4199 1.12051 -1.13098 -1.50552 3.15931 0.263186 -4.01878 0.339658 -0.0162938 -0.134404
180 1 12.8404 21.4228 1.26201 -0.471497 0.0061306 0.269058 0.320067 -4.07173 -0.00843702 0.401708 0.461
188 1 10.0407 24.0693 1.00744 -1.30348 -2.27273 0.479064 4.94859 -3.86858 -0.0744871 1.21315 0.176893
190 1 12.925 24.1389 1.13148 -1.55903 -2.12372 1.13416 5.72149 -3.852 -0.370353 -0.0602908 0.240841
280 1 12.8739 21.3633 4.31839 1.61778 1.13426 1.57654 5.74636 -3.97695 -0.306879 0.28847 -0.0148834
289 1 11.3072 22.8471 2.78659 -3.96248 4.07387 -0.259648 0.503582 -3.97838 0.480971 -0.263445 0.0881799
290 1 12.8777 24.1232 4.37814 1.06046 -1.98762 3.24564 0.242357 -3.97659 -0.437255 0.246221 0.234744
192 1 1.54582 26.9795 1.1962 0.832332 -0.820942 0.130328 5.37393 -3.97175 -0.124323 -0.0510068 0.0680287
194 1 4.33343 27.1078 1.13508 -1.61671 -3.20912 1.28134 0.256127 -3.93868 -0.384574 -0.319505 -0.601005
291 1 0.123486 25.6243 2.91183 -1.91934 -0.395923 -0.219087 0.420231 -3.91257 0.264984 0.0449153 -0.361563
292 1 1.58125 27.1181 4.28797 0.521729 -0.104332 -0.21211 5.45837 -4.0037 -0.147139 -0.286949 0.0795715
293 1 3.0799 25.6086 2.75677 2.80973 1.17343 -0.298043 5.9957 -3.894 -0.372401 0.150847 0.150647
294 1 4.2495 27.1204 4.3702 -1.17778 2.9951 1.58236 0.256982 -3.94104 0.864725 0.147362 -0.271948
196 1 7.3038 27.0489 1.28609 3.37805 -2.98627 4.17109 4.97785 -3.90166 -0.990473 -0.0353131 -0.633902
295 1 5.73558 25.636 2.73454 2.43808 0.681994 -1.51506 5.3019 -3.94641 0.334088 0.214341 0.225322
296 1 7.17419 27.0665 4.27713 0.309675 6.50899 -1.89168 0.266206 -3.88929 -0.280767 0.0697695 -0.393561
297 1 8.56397 25.5256 2.78407 -0.134748 1.31643 -3.31811 0.363838 -3.92582 0.637988 0.00868917 0.0436021
209 1 11.3537 28.3011 2.85549 -0.393176 -1.47754 0.78913 6.04511 -3.82035 0.290424 0.751285 -0.39122
198 1 9.95313 27.0869 1.06902 0.689763 -0.698924 -1.31982 5.26034 -3.83118 0.54007 -0.122197 1.07805
200 1 13.0099 27.0067 1.12646 5.30296 -0.270392 0.651806 5.64689 -3.8703 -0.595186 -0.0569048 0.192297
299 1 11.357 25.6421 2.82944 0.613569 6.18239 1.53807 6.38674 -3.82132 0.353879 -0.249768 -0.178206
301 1 0.190771 0.330155 5.87591 0.5675 -0.168496 -2.46061 5.03027 -4.00697 0.13838 -0.628193 0.421302
302 1 1.52998 1.64637 7.76777 -1.42736 -3.15682 0.972455 0.326389 -3.95879 -0.125761 -0.216435 -0.18
303 1 2.87995 0.257353 6.04003 0.341516 -0.0404191 -2.60214 0.190881 -4.01853 0.172823 -0.562418 -0.0328216
304 1 4.29008 1.6221 7.59851 -4.04083 -0.468429 4.02966 0.161565 -3.8916 -0.0469213 0.734489 0.124747
311 1 0.149724 2.85167 6.03118 -1.74976 0.28104 0.763369 5.32278 -3.8744 -0.323986 1.28505 -0.361751
313 1 2.89377 2.99568 5.91029 0.148637 -0.416692 -0.495992 5.43906 -3.87749 -0.0181691 -0.0486183 0.571791
305 1 5.63949 0.272746 6.03543 -2.6762 0.601797 -1.53878 5.35494 -3.8329 0.65947 0.449089 -0.640614
306 1 7.16827 1.7968 7.62983 -0.497955 1.38302 -0.554626 5.94584 -3.88338 -0.258695 -0.839982 0.315586
307 1 8.54451 0.339894 6.08276 2.06573 -1.47317 -0.377265 0.339447 -3.96517 -0.292848 -0.496222 0.00435238
315 1 5.88369 2.98404 5.94625 0.746495 3.22544 0.384377 5.41914 -3.96864 -0.851912 0.609084 -0.122854
317 1 8.5575 3.091 5.9476 0.877774 1.33708 0.284955 0.0794028 -4.08682 -0.606577 -0.284173 -0.155187
208 1 9.93587 1.5992 4.42212 -2.11946 3.54369 -4.60115 0.124726 -4.05399 0.141949 0.190804 0.254371
210 1 12.7168 1.62492 4.4524 1.93469 -2.84729 3.21644 0.362175 -3.92451 -0.269579 0.000981139 -0.350477
308 1 9.85407 1.73124 7.58367 -3.32365 0.641461 0.348771 0.209424 -3.95441 0.604753 -0.301967 -0.28869
309 1 11.427 0.271834 6.08053 2.261 -0.338001 1.59023 0.160644 -3.93706 -0.261339 0.0666635 0.0148247
310 1 12.8338 1.67333 7.60635 -2.12593 2.9352 -1.91821 0.176934 -3.9342 -0.231171 -0.142778 0.104651
319 1 11.2832 3.0542 6.03934 1.40137 -1.12676 -0.599603 0.111259 -3.98973 0.663418 0.261069 -0.531935
212 1 1.5107 4.56417 4.42871 1.71349 1.1107 -0.37813 5.56352 -3.96646 0.387162 -0.256476 -0.176213
214 1 4.35594 4.34938 4.44806 -3.60792 0.888428 1.10906 5.0677 -3.927 0.282473 0.771898 -0.385964
222 1 1.54559 7.23945 4.40581 2.60978 -1.28947 -2.65909 0.159948 -3.98088 -0.0882834 -0.0764688 0.147561
224 1 4.45542 7.31972 4.44413 2.28078 -2.16034 3.83898 0.30868 -3.92189 -0.352491 0.436779 -0.321177
312 1 1.51633 4.46751 7.55913 6.58074 -1.87872 -2.48992 0.254963 -3.95563 0.4392 -0.244021 0.251692
314 1 4.38482 4.47065 7.68164 1.38421 -0.500902 1.94911 5.91708 -3.86176 -0.306479 -0.480169 -0.273663
322 1 1.50912 7.24612 7.54442 2.77664 -2.04083 2.3912 0.114124 -3.93368 -0.202171 -0.582724 0.0532986
323 1 3.05231 5.91185 5.96121 -1.31866 2.39502 -0.268551 0.267916 -3.94216 -0.551916 -0.0601717 0.363624
324 1 4.3708 7.29584 7.57389 1.4459 0.563605 -1.51929 0.132447 -3.96297 0.146975 -0.351688 0.108711
226 1 7.22143 7.27669 4.40877 -1.92098 2.73055 -2.00716 0.113059 -3.99093 0.113627 0.361614 0.0869989
316 1 7.10763 4.57462 7.61447 2.31643 -3.52172 -0.258836 0.363825 -3.98922 -0.242928 -0.928034 0.276015
325 1 5.76431 5.8264 5.89979 -2.43851 2.57701 -2.10025 0.271635 -3.96278 0.187088 0.337559 0.26591
326 1 7.19795 7.24786 7.52234 -1.71798 -0.00966545 0.572563 0.274046 -4.01794 -0.475948 0.799486 -0.700844
327 1 8.55272 5.78657 6.1142 -1.12912 -0.410511 1.0442 0.561268 -3.9425 0.245501 0.0729117 -0.416624
228 1 9.92162 7.27115 4.49295 0.0778168 -0.255412 1.79302 0.270956 -3.96467 0.10118 0.0697952 0.345507
321 1 14.1448 5.82456 6.00269 4.06995 0.134137 -0.309495 0.201644 -3.94328 0.0405526 0.332473 -0.186591
318 1 9.98504 4.43593 7.578 1.75132 -4.65897 3.2673 0.0903801 -3.98972 -0.0980663 0.401113 0.39356
320 1 12.7757 4.48205 7.58517 1.89733 -3.11783 2.82706 0.189114 -3.91875 0.109286 -0.808588 0.0880607
328 1 10.0129 7.28399 7.45311 2.65819 -0.927283 -2.4793 0.540163 -3.94513 0.16618 0.279854 0.297378
329 1 11.4291 5.87426 5.98446 1.9858 -1.38951 -0.786356 0.0762874 -3.96442 -0.0451033 -0.207583 -0.209866
330 1 12.8425 7.28945 7.60777 -1.97867 0.420953 -1.07444 0.0971357 -4.02395 0.0374609 0.0466654 0.0265498
232 1 1.56015 10.1641 4.42335 2.12226 0.0705619 -0.681687 0.222584 -4.00069 -0.57597 -0.307323 -0.194582