ITEM: TIMESTEP
47000
ITEM: NUMBER OF ATOMS
2000
ITEM: BOX BOUNDS pp pp pp
1.0838953229856951e-01 1.4221610467701321e+01
2.1677906459713903e-01 2.8443220935402643e+01
-8.9308463873358068e-01 5.8213084638733143e+01
ITEM: ATOMS id type x y z vx vy vz c_csym c_peratom fx fy fz
2 1 1.62332 1.66863 0.59212 -0.282889 -3.25185 -0.636516 0.277689 -4.0843 -0.482357 -0.184731 -0.424573
4 1 4.35789 1.61575 0.52037 0.990702 -5.33602 3.45801 0.223783 -4.11817 0.0166345 -0.205895 0.419319
11 1 0.115605 3.14255 -0.845344 0.617832 -0.194419 3.50607 0.210137 -4.04207 -0.0555623 -0.290728 -0.139125
101 1 0.126621 0.284403 2.03527 -1.57173 1.46596 2.1275 0.151824 -4.09422 -0.278843 0.103367 -0.0884431
103 1 2.85007 0.270771 2.09453 0.287695 0.367304 -1.8153 0.238946 -3.98561 0.25215 0.190755 -0.199447
111 1 0.168447 3.08626 2.06157 -2.2925 0.592843 0.179022 0.131019 -4.12147 -0.398107 0.00922868 0.0754481
113 1 2.87763 3.13123 2.11675 -1.71434 2.42111 -1.1208 0.32884 -4.05934 -0.0952752 0.00889496 -0.102219
13 1 2.94284 3.10367 -0.874171 -0.0706192 -1.95523 0.774801 0.0723085 -4.01081 -0.14045 0.0420846 -0.0245232
6 1 7.17995 1.58532 0.585402 -1.53139 -1.81767 -2.43971 0.226363 -4.08208 0.17583 0.61705 0.137029
17 1 8.63608 3.25517 -0.824272 -1.24355 -0.0988133 -0.860341 4.97267 -4.04953 -0.272354 -1.09956 -0.0505945
105 1 5.90739 0.22905 2.06302 0.812795 -1.48127 -4.16198 0.294059 -4.06767 -0.587842 -0.412993 0.378514
115 1 5.79048 3.13764 2.04836 -0.932742 0.818202 0.0439582 0.180463 -4.03492 0.0342332 -0.64219 0.189593
117 1 8.60233 3.08029 2.12826 0.475293 0.415756 -1.302 0.160757 -4.04583 0.040757 0.316024 -0.70821
15 1 5.86915 3.09703 -0.836298 -1.1078 -3.23994 -0.243916 0.29051 -3.99434 -0.426971 0.138433 -0.672142
8 1 9.98472 1.71462 0.470779 1.02028 2.64764 -1.65962 0.38307 -4.04014 -0.42958 0.163507 1.21659
9 1 11.3244 0.287262 -0.793308 -0.628437 1.37052 0.162777 0.389112 -4.0363 0.754808 -0.00129427 -0.677196
10 1 12.8557 1.68831 0.520896 -0.261261 2.58464 0.684826 0.132781 -4.01864 -0.0377204 0.491809 0.362338
109 1 11.3921 0.306018 2.03328 4.17545 -4.26001 3.01885 0.16744 -4.06488 -0.206923 -0.708309 -0.0394201
119 1 11.4562 3.11085 1.97953 -0.877516 0.612354 1.13148 0.151398 -4.09459 -0.305847 -0.289555 0.0349694
12 1 1.52356 4.6359 0.490534 1.18436 1.40208 1.05812 0.563889 -4.03874 -0.069062 -0.704228 0.0986189
14 1 4.34915 4.42365 0.684515 -0.761965 1.11821 -1.53086 0.270816 -4.08735 -0.0611335 0.0790917 -0.192367
22 1 1.54026 7.32431 0.51764 0.529166 1.27637 -0.648244 0.240514 -4.02205 0.0980242 -0.175975 0.78352
23 1 3.01689 5.92797 -0.865726 4.21453 0.286138 -0.65637 0.222274 -4.02497 -0.247894 -0.166428 -0.12467
24 1 4.35552 7.36387 0.587141 0.718611 1.41969 0.425215 0.10627 -4.0174 -0.444282 0.41512 0.0476188
121 1 0.132435 5.82793 2.05468 -2.35864 3.10392 -0.471262 0.184672 -4.02357 0.250603 0.524714 0.077578
123 1 3.01618 5.86763 2.14899 1.00139 1.8653 -1.24788 0.253955 -4.10876 -0.236175 0.135647 -0.276918
16 1 7.14135 4.5226 0.663527 0.603539 0.154603 0.133915 0.15266 -4.04603 -0.109071 -0.145937 -0.275533
25 1 5.70759 5.92495 -0.776308 -0.827089 1.1553 2.35682 0.317 -4.12363 -0.380393 -0.609111 -0.390103
26 1 7.1412 7.16975 0.53808 -0.0337704 2.62343 0.778117 4.95132 -3.93049 0.217876 1.44576 0.480148
125 1 5.74127 5.95799 2.09758 -0.136011 -2.75282 -0.154075 0.137947 -4.17879 -0.0606558 0.172016 0.0574833
127 1 8.57446 5.88387 1.96349 -1.51658 -3.67076 0.00771245 0.359717 -4.07604 0.120037 -0.15697 0.465956
18 1 10.0587 4.47472 0.5886 2.01504 1.15568 0.108705 0.210563 -4.04503 -0.0549804 0.563252 0.292485
20 1 12.7939 4.54238 0.555288 -0.022531 3.00342 -1.17168 0.0594687 -4.10506 -0.0390987 0.344138 0.0182234
28 1 10.1169 7.35391 0.676939 1.08986 -1.21663 1.80841 0.40136 -4.01627 -0.524004 -0.54241 -0.327231
29 1 11.4127 5.98723 -0.875406 1.3822 1.47477 -0.555896 0.0535818 -4.10485 -0.660269 -0.491776 -0.122813
30 1 12.8531 7.28188 0.64881 0.362699 -0.519128 0.486825 0.135052 -4.11963 -0.0289402 0.515201 -0.0628792
129 1 11.3642 5.90889 2.10465 -0.995542 1.01394 2.2528 0.108397 -4.0946 0.103588 0.11518 -0.440432
32 1 1.48279 10.1923 0.520136 2.66336 -1.18469 0.933482 0.220702 -4.1249 0.219771 -0.659169 0.151675
34 1 4.32744 10.195 0.521046 -3.42019 -1.92301 1.41173 0.186624 -4.06222 -0.167119 -0.660755 0.0460369
43 1 2.92107 11.628 -0.870839 2.17426 0.782241 3.50485 0.114355 -4.09105 -0.363162 -0.740735 -0.552513
133 1 2.87707 8.77788 2.08778 -1.44944 0.975575 0.710255 0.0901173 -4.04892 0.435751 0.0728929 0.0988899
141 1 0.146359 11.6297 1.97433 -2.20193 -7.04944 -1.51669 0.304886 -4.10608 -0.0419562 0.128611 0.633565
143 1 2.92416 11.521 2.06436 -0.572232 1.1909 1.77002 0.160753 -4.11341 -0.26928 -0.0151804 -0.302163
36 1 7.17897 10.1662 0.634055 0.10168 3.47717 0.174941 0.163389 -3.97951 -0.181902 0.10123 0.147733
47 1 8.63625 11.4798 -0.790609 -1.46078 2.66256 0.234251 0.278722 -4.05922 -0.535398 -0.269417 -0.501397
135 1 5.71447 8.72482 2.16348 -0.880733 0.590278 -0.109653 0.282936 -4.06521 0.750831 0.142447 -0.364787
137 1 8.61908 8.74613 2.00006 -4.19951 1.4167 -2.48788 0.354115 -4.09392 -0.46296 -0.402816 -0.313913
145 1 5.78797 11.4174 2.06694 0.913579 -3.10787 0.676852 0.313994 -4.04949 -0.406338 0.706841 0.385372
147 1 8.63173 11.5707 2.16899 -2.52053 -2.66134 -2.016 0.185066 -4.07337 -0.587667 0.463441 -0.552692
37 1 8.64539 8.6808 -0.760959 -0.410704 1.96136 0.795798 0.357331 -4.12281 -0.275349 0.379888 -0.260368
41 1 14.1834 11.5242 -0.79451 -1.35835 -5.95404 3.83557 0.238637 -4.05432 -0.197751 0.724819 -0.29044
131 1 14.189 8.78043 2.18424 -1.59748 2.05417 3.03081 0.387185 -4.00055 0.658221 -0.466694 -0.204861
38 1 10.1092 10.2499 0.702086 0.647054 3.02786 -2.05404 0.492409 -4.06462 -0.554297 -1.01725 0.117955
39 1 11.3428 8.78317 -0.840984 2.80774 -0.622395 -1.00191 0.223262 -4.07831 0.6255 -0.204666 -0.191913
40 1 12.8549 10.1114 0.719482 -1.75728 -0.634733 -0.267602 0.236968 -4.08357 -0.362645 0.1379 -0.726242
139 1 11.4119 8.69776 2.15076 -0.425376 2.4171 -0.0430739 0.107626 -4.089 -0.051163 0.434426 -0.399168
149 1 11.4267 11.5446 2.15163 -0.904464 -0.906018 0.248794 0.173485 -4.06566 0.289896 0.385825 -0.49624
49 1 11.351 11.4979 -0.812508 -3.94296 -1.72452 -3.57845 0.142925 -4.03249 0.377281 0.264685 -0.566216
42 1 1.60077 12.9976 0.503683 -0.841826 -0.173751 0.753914 0.419338 -4.06864 -0.767545 0.492378 0.638628
44 1 4.30049 12.9516 0.488536 -1.17519 0.372824 -0.13007 0.106939 -4.13839 0.243833 -0.00889466 0.88016
52 1 1.58776 15.7356 0.732633 -0.585983 1.26946 1.71295 0.66184 -3.98295 -0.999612 -0.438716 -0.648247
54 1 4.38463 15.6552 0.583809 0.269637 0.959657 1.9614 0.266791 -4.07848 -0.201176 0.524706 -0.282351
153 1 2.9946 14.2978 2.07745 -3.03426 -0.361765 3.65674 0.164496 -4.00064 -0.255051 -0.204329 0.526429
46 1 7.13899 12.8477 0.559274 -0.042375 -0.703018 -2.37022 0.222186 -4.02724 -0.390536 0.626919 0.17293
56 1 7.08452 15.7726 0.504916 0.19616 0.505449 -1.21975 0.245273 -4.07774 0.218269 0.00552648 -0.104254
155 1 5.76502 14.3443 2.02069 -0.699273 2.50818 -2.71856 0.102819 -4.08018 0.135895 -0.00759518 0.30095
157 1 8.53251 14.4644 2.10455 1.77519 1.9958 -4.01974 4.98588 -4.08983 0.216902 -0.141598 0.371147
57 1 8.49816 14.3386 -0.752841 5.27468 2.46447 0.151665 0.48234 -3.98383 0.137456 0.157372 -0.861511
51 1 14.0057 14.3518 -0.89267 5.08997 3.62125 -2.07853 4.69037 -3.98943 1.58559 -0.588035 -0.202682
151 1 14.2009 14.4155 2.08583 -4.71089 2.01634 -0.85659 0.120106 -3.99985 0.135835 -0.655149 -0.181875
48 1 9.93985 13.0563 0.609828 2.86016 2.34417 0.701272 0.268392 -4.06814 0.539095 -0.941474 0.20806
50 1 12.7181 12.9904 0.607132 0.559624 -1.36974 -0.820506 0.174984 -4.07213 0.243448 -0.256263 -0.230062
58 1 9.99316 15.7186 0.591834 -3.3381 -1.51398 5.38263 0.167832 -4.07623 0.151498 0.443274 0.210531
60 1 12.7967 15.7437 0.597454 1.53771 1.90327 -4.70531 0.110843 -4.06755 -0.194357 -0.0649424 0.349126
159 1 11.3491 14.3264 2.13576 -0.265735 -1.65506 -3.98071 0.15064 -4.06814 0.397958 0.128683 -0.177596
62 1 1.43944 18.5161 0.632868 0.272627 0.831543 -0.200207 0.115449 -4.0279 0.22301 -0.0108114 -0.0456093
64 1 4.38586 18.6552 0.637022 1.24428 1.0664 2.86252 5.06886 -4.02014 -0.152867 -0.766444 -0.173704
163 1 2.94245 17.1558 1.97299 0.341627 2.40032 0.506019 0.381928 -4.03006 0.689867 0.199852 0.363844
171 1 0.141802 19.9783 2.17282 -0.0590841 -1.37942 4.27312 0.166634 -4.12039 -0.13158 -0.196729 -0.284686
173 1 2.89555 19.9823 2.05558 0.785649 -1.23368 2.3689 0.144288 -4.108 -0.802431 -0.254312 0.27795
66 1 7.24355 18.6165 0.636249 2.75597 -4.35103 0.905848 0.362916 -4.15468 -0.810801 0.0447065 0.224166
67 1 8.57677 17.1461 -0.869086 -4.30079 -3.56988 1.31798 0.0495347 -4.14212 0.00641802 0.00996089 0.00177832
165 1 5.78304 17.093 2.01172 1.97311 1.99329 -0.167527 0.23651 -4.04304 -0.124674 0.291221 0.357387
167 1 8.56005 17.078 1.9589 1.63712 1.01306 -0.622391 4.57912 -4.07932 0.103605 -0.0437986 0.955913
175 1 5.70632 20.007 2.08126 -3.42076 -2.85137 2.01629 0.132115 -4.05257 0.149931 0.265646 -0.229957
177 1 8.58858 20.043 2.2847 -1.05917 0.80188 -0.731301 0.944947 -3.99691 -0.124102 -0.517018 -0.932566
75 1 5.71713 19.9361 -0.883741 -4.53949 -0.9021 2.29786 0.126818 -4.06448 -0.451261 0.418187 -0.820865
65 1 5.67248 17.193 -0.846009 -1.31158 -3.63153 -0.620776 0.327408 -4.10368 0.399223 -0.272323 -0.311392
161 1 14.1852 17.2046 2.178 -8.06951 -0.86164 0.0732044 0.209569 -4.12531 0.0994647 -0.228239 -0.779473
68 1 9.83757 18.5862 0.662333 1.01621 0.95189 3.77626 0.501353 -4.10931 0.945459 0.801891 -0.351351
70 1 12.7582 18.5098 0.622288 -2.75978 -0.241021 0.901339 0.154783 -4.00021 -0.0138806 0.290624 -0.431779
169 1 11.4357 17.1907 2.07082 -0.050047 0.778513 1.36961 0.10866 -4.06029 -0.696256 -0.231381 0.00897107
179 1 11.4548 19.9395 2.15536 0.478562 4.61523 -0.247094 0.244377 -4.0874 -0.0361106 0.0553024 -0.62465
69 1 11.3235 17.1806 -0.788433 2.51938 -0.439877 2.89062 0.208173 -4.07165 0.124061 -0.00548009 -0.886688
71 1 14.189 20.001 -0.781838 -3.02828 1.71166 0.793185 0.294946 -3.95032 -0.151325 -0.503986 -0.315501
61 1 14.2026 17.0274 -0.821726 -2.79754 0.110739 5.17862 0.288108 -4.01742 0.198162 0.154883 -0.253859
72 1 1.54936 21.3951 0.540481 2.3338 -3.4761 -2.56089 0.171822 -4.1295 -0.063377 -0.101566 -0.322558
74 1 4.24289 21.3195 0.668647 -0.775897 2.76848 -0.309503 0.354271 -4.16645 0.511661 0.290201 -0.158265
82 1 1.5098 24.075 0.468831 -0.197856 1.54937 -4.05427 0.285305 -4.11056 0.0576343 0.264132 0.289581
84 1 4.24694 24.1216 0.613595 1.75243 2.83472 -4.12876 0.387244 -4.01282 0.579139 0.724334 -0.154517
181 1 0.128659 22.763 2.01997 -3.03311 -1.67311 -0.629939 0.0461688 -4.08014 -0.110973 -0.0170275 -0.171816
183 1 2.89382 22.7594 1.97809 0.572942 -1.11899 -0.365379 0.151703 -4.11016 -0.243881 0.0128979 0.614282
76 1 7.14056 21.2635 0.587726 -0.691281 0.193514 1.05787 0.363324 -3.98574 0.0631077 0.761135 -0.235412
86 1 7.25436 24.2668 0.590317 -2.43118 3.29649 -1.15762 0.39725 -3.95622 -0.166914 -0.288835 -0.156972
185 1 5.72509 22.8979 1.98309 3.67767 -2.14848 -3.35625 0.463826 -4.07933 -0.00924843 -1.11339 0.0530358
187 1 8.47118 22.692 2.15206 -0.732136 -0.532565 -1.73565 0.569094 -4.07333 0.714965 0.163015 -0.824648
78 1 9.92402 21.3232 0.533002 -2.14879 -1.2859 1.20999 0.213709 -4.08367 -0.0440115 0.0462978 1.04996
80 1 12.7264 21.3466 0.60691 -2.02506 0.894117 1.33119 0.063398 -4.02974 0.548998 0.0157902 -0.124196
88 1 9.99398 24.1702 0.630508 -1.34963 2.3224 -3.76156 0.195232 -4.09813 -0.0715998 -0.100189 -0.217032
90 1 12.8226 24.1983 0.500385 -3.32555 -1.34099 0.789537 0.176485 -4.04317 -0.83142 0.212264 0.688193
189 1 11.404 22.6532 2.00215 1.1462 2.87937 3.03823 0.283261 -3.99123 0.167623 0.886056 0.292473
92 1 1.49183 27.0716 0.577196 -1.55268 0.823337 -0.21304 0.0682927 -4.05237 -0.351606 -0.526354 0.311257
93 1 2.95679 25.6072 -0.873737 -2.98218 -1.24306 2.03838 0.163277 -4.08276 -0.294509 0.204155 -0.533673
94 1 4.31233 27.0701 0.732863 -2.42482 -0.468398 -1.32983 0.643537 -4.00099 -0.362434 -0.0860276 -0.932053
193 1 2.87926 25.4829 1.99268 -1.0862 0.475835 1.41936 0.403716 -4.01373 0.230304 0.561401 0.00655943
5 1 5.72241 28.2956 -0.813678 2.69086 -0.906142 0.0342517 0.560884 -4.05488 0.147901 0.701232 -0.715542
107 1 8.62684 28.3911 2.09829 1.62718 -2.83475 -3.52836 0.290859 -4.10952 -0.391707 0.891423 -0.339936
96 1 7.19496 27.0059 0.57938 3.8854 -2.09663 -3.2721 0.0370828 -4.10118 -0.00924022 0.11524 0.310288
195 1 5.7699 25.6353 2.00747 -1.7019 -1.17403 1.74296 0.125362 -4.04838 0.0688483 -0.199208 0.426532
197 1 8.65402 25.6862 2.05949 -0.592902 -0.620959 0.00800132 0.315387 -4.10092 -0.213858 -0.595621 0.344093
7 1 8.51249 28.4072 -0.792902 0.305773 -1.36188 3.04787 0.324555 -4.04047 0.10493 -0.0151805 -0.866548
191 1 14.1954 25.5315 2.01656 -0.0885336 -4.4938 -0.48509 0.206645 -3.98505 0.601436 0.442292 -0.458731
98 1 9.85719 27.0277 0.53579 2.60699 4.64685 0.62246 0.389204 -4.14233 0.847898 -0.364608 -0.154282
100 1 12.8111 27.1397 0.589852 0.688756 2.41483 -3.36628 0.109635 -4.05802 0.103018 -0.51654 -0.261885
199 1 11.3947 25.7747 2.06104 -1.77748 -0.753815 0.440887 0.578388 -4.01284 0.209981 -0.609052 0.219782
99 1 11.3966 25.6653 -0.831685 -3.11862 -0.640777 0.494149 0.136656 -4.07769 -0.326502 -0.329587 -0.063828
102 1 1.43258 1.58866 3.56615 7.38627 -3.29026 1.48818 0.292532 -4.08953 0.227282 -0.163588 0.139091
104 1 4.40471 1.70471 3.47777 -2.62904 -0.431866 -2.50035 0.225257 -4.07638 -0.654532 0.0222975 -0.65534
202 1 1.64591 1.56967 6.38236 2.02744 3.5456 -1.59179 0.591628 -4.06342 -1.15419 0.898693 0.514443
203 1 2.94499 0.259696 4.97572 -1.3304 -3.48688 0.0854903 0.127031 -4.10381 0.439059 -0.191612 -0.318821
204 1 4.18458 1.68524 6.46188 -0.935437 1.48785 2.63114 4.35289 -4.06288 1.35646 -0.477498 -0.351033
213 1 2.88677 3.08084 4.94217 -2.28947 -0.845795 -1.07431 0.342351 -4.10613 -0.234273 -0.110351 -0.00639455
106 1 7.15632 1.63052 3.46302 0.736671 -1.16949 0.0239501 0.230912 -4.13327 0.584831 0.304502 0.915038
205 1 5.64874 0.299036 4.84405 2.33469 0.995414 0.291621 0.549298 -3.99413 0.870348 -0.623616 1.42474
206 1 7.2548 1.68985 6.42416 -1.46106 -1.55409 1.7364 0.348931 -4.02863 -0.651858 -0.652749 -0.167768
207 1 8.58474 0.236208 5.04997 1.31666 3.04051 1.49325 0.143801 -4.04546 0.238422 0.403964 -0.874679
215 1 5.78167 2.95842 5.10126 -1.49422 -2.50707 3.51511 0.506169 -4.04756 -0.214308 0.0698496 -0.42445
217 1 8.60442 3.0921 4.9984 -1.80041 2.92479 -5.24384 0.120832 -4.08413 -0.500286 -0.0366144 0.0135828
201 1 14.2143 0.277593 5.05353 -0.76465 1.66164 -3.30675 0.31119 -4.09533 0.123508 -0.249847 0.0229212
211 1 14.1953 3.09372 5.10626 0.131749 -3.47244 0.658656 0.255416 -4.06451 0.396805 -0.810581 -0.319645
108 1 9.98023 1.81548 3.58728 1.78008 -0.0382443 0.481447 5.37013 -3.99751 0.0910222 -1.11185 0.0865698
110 1 12.7567 1.63776 3.49922 0.143622 0.261967 0.471904 0.157378 -3.98396 0.08349 0.398997 0.464593
208 1 9.93587 1.5992 6.51114 -2.11946 3.54369 -4.60115 0.124224 -4.16948 0.544466 0.5405 -0.277088
210 1 12.7168 1.62492 6.53881 1.93469 -2.84729 3.21644 0.352115 -4.03684 -0.0197328 0.10824 -0.266148
219 1 11.4042 3.08595 5.02264 2.96876 -3.6 -0.306264 0.065176 -4.03018 0.0157548 -0.393784 0.017864
112 1 1.47335 4.44722 3.64786 -2.08488 5.53109 1.88305 0.229209 -4.02133 -0.102468 0.745464 -0.503788
114 1 4.45714 4.53943 3.65998 0.408107 -1.46821 1.68028 0.430874 -4.09101 -0.435608 -0.274717 -0.404652
122 1 1.5387 7.19477 3.6158 -2.178 2.10286 -1.52883 0.264345 -3.98395 -0.279909 0.000707754 -0.499755
124 1 4.30599 7.3213 3.59367 -1.70609 -0.894295 0.386355 0.156731 -3.98819 -0.150231 0.244908 -0.234388
212 1 1.5107 4.56417 6.51716 1.71349 1.1107 -0.37813 0.378663 -4.09502 0.275511 -0.321851 -0.0248889
214 1 4.35594 4.34938 6.53484 -3.60792 0.888428 1.10906 4.7406 -4.0822 0.156966 0.448433 -0.588158
222 1 1.54559 7.23945 6.49623 2.60978 -1.28947 -2.65909 0.155679 -4.10619 -0.417588 -0.373362 -0.281907
223 1 3.00176 5.86832 5.06115 -2.9209 -3.41332 -1.19244 0.119562 -4.10239 0.22667 -0.373402 0.0669978
224 1 4.45542 7.31972 6.53125 2.28078 -2.16034 3.83898 0.29242 -4.04548 -0.613114 0.338832 -0.541555
116 1 7.08446 4.43511 3.59409 -0.717838 -0.661302 1.69127 5.0596 -4.09611 0.588642 0.575993 -0.0947205
126 1 7.33953 7.39572 3.57357 1.37971 -3.46356 0.697126 0.486313 -3.98782 -0.700745 -0.366696 -0.183752
216 1 7.15048 4.45322 6.38374 0.663868 1.20315 1.59813 0.325021 -4.13104 -0.0575571 0.325727 0.359359
225 1 5.7941 6.05956 4.97818 0.299468 -1.75276 -1.18853 0.615693 -4.04404 -0.418169 -0.654057 0.258881
226 1 7.22143 7.27669 6.49894 -1.92098 2.73055 -2.00716 0.109926 -4.13314 0.168666 0.305076 0.243359
227 1 8.61587 5.8789 4.98459 -0.532809 -0.371899 0.126652 0.129223 -4.04392 0.00194353 -0.299119 0.013095
221 1 14.1524 5.86373 5.07485 0.796103 -1.93786 -0.0692733 0.124689 -4.0714 -0.175455 0.164302 -0.421653
118 1 10.0291 4.4796 3.55802 -2.00022 0.251406 -1.34662 0.0995703 -4.12522 -0.304101 -0.0579318 -0.330169
120 1 12.7727 4.51546 3.49579 -2.93314 -0.0391201 0.674702 0.108829 -4.10398 0.187393 -0.273137 0.740133
128 1 10.0124 7.32217 3.5106 -2.7644 2.28321 3.1472 0.123815 -4.10653 -0.789592 -0.122011 0.29045
130 1 12.7448 7.26336 3.51636 -1.8326 -3.86476 -3.53257 0.157656 -4.11005 0.636358 0.0259507 0.337997
218 1 9.92391 4.44006 6.49327 2.54663 2.02038 1.45237 0.0876525 -4.11765 0.444994 0.345509 -0.103893
220 1 12.7806 4.44772 6.48528 -0.879614 -1.25736 1.20844 0.0624697 -3.99846 -0.207409 0.0575675 0.414849
228 1 9.92162 7.27115 6.57587 0.0778168 -0.255412 1.79302 0.253691 -4.09244 0.106374 -0.188925 -0.0841715
229 1 11.2652 5.91426 5.05518 0.58398 1.74186 -1.1864 0.298051 -4.09185 0.678544 -0.105292 -0.126051
230 1 12.8446 7.35538 6.41241 2.31232 0.678649 1.21522 0.272383 -4.06 -0.770391 -0.511459 0.505159
132 1 1.49806 10.2454 3.47765 0.926583 1.77752 2.20689 0.199514 -4.03573 0.271097 -0.382802 0.641513
134 1 4.33421 10.2257 3.61115 -1.95039 -2.01599 -1.69927 0.27334 -4.03045 0.0735795 -0.530678 -0.164076
232 1 1.56015 10.1641 6.51226 2.12226 0.0705619 -0.681687 0.206645 -4.10478 -0.434705 0.00485063 -0.55254
233 1 2.86938 8.7146 5.07738 -0.683116 0.194601 5.31636 0.143873 -4.03925 0.391772 0.231882 -0.649931
234 1 4.30212 10.2221 6.49126 -0.621179 0.157015 -0.123602 5.21923 -4.08376 0.458684 -0.277034 0.296738
241 1 0.149986 11.5192 4.97956 -2.41095 0.904273 -0.0212207 0.0910724 -4.07403 0.135349 0.0702478 -0.143342
243 1 2.87755 11.525 4.92816 -0.234391 0.744033 0.670144 0.237542 -4.04479 0.0438495 0.192172 0.12488
136 1 7.34978 10.1327 3.5891 0.629619 0.98562 1.20116 4.82107 -4.09521 -0.89185 0.37415 0.0387641
235 1 5.87066 8.81598 4.9515 0.465343 -1.43871 1.4062 0.372008 -4.07823 -0.803827 -0.416735 0.250492
236 1 7.13391 10.1574 6.51816 2.36863 -0.429749 -0.449581 0.257465 -4.12484 0.123849 0.0414427 0.252048
237 1 8.63235 8.75913 5.16886 2.56455 0.935182 0.542097 0.352649 -4.13021 -0.21187 0.115998 -0.559275
245 1 5.87987 11.5851 5.01451 0.240801 -0.541356 -0.243051 0.422947 -4.0656 -0.272455 0.17017 -0.284324
247 1 8.6244 11.498 5.12102 0.432483 -3.51449 2.45946 0.191629 -4.13223 0.109206 0.37454 0.122886
231 1 14.2058 8.74973 4.97856 -0.187028 1.52542 1.17023 0.0855497 -4.12397 0.37056 -0.272183 -0.252184
138 1 9.92992 10.142 3.52374 -1.64946 -2.47072 4.24093 5.0576 -4.14822 0.588927 -0.465299 0.299759
140 1 12.8378 10.2224 3.53171 -3.06779 0.590986 0.953237 0.189644 -4.13111 -0.609723 -0.285284 0.247145
238 1 10.0462 10.0877 6.51748 4.00462 1.03455 -0.403308 0.139309 -4.03562 -0.0648559 0.333968 0.622297
239 1 11.364 8.67474 4.98576 1.07823 -1.10089 5.00007 0.0969073 -4.10533 0.204483 0.090806 0.182703
240 1 12.788 10.0949 6.34407 0.473313 1.12475 -2.36237 0.364096 -3.99751 0.287987 0.311076 0.884761
249 1 11.3994 11.5636 5.11049 0.00818624 4.09037 -1.73351 0.240615 -4.0872 -0.155198 -0.502885 0.0503148
142 1 1.52181 13.0509 3.63212 -1.28477 -4.17543 2.9049 0.342865 -4.12534 0.000445222 -0.234809 -0.14065
144 1 4.29805 12.8216 3.46752 1.81958 -2.20134 0.0142737 4.72947 -4.06278 0.73184 0.823165 0.503999
152 1 1.51339 15.8576 3.60844 -0.669006 2.84052 -0.820189 5.14119 -4.16317 0.424331 -1.00655 -0.62454
154 1 4.25725 15.7179 3.524 2.46855 -1.35996 -1.82568 0.304448 -4.06207 0.753473 0.320375 -0.541287
242 1 1.53992 12.9165 6.46099 0.280113 3.4737 -1.1283 0.116879 -4.14448 0.308944 0.380547 0.0880082
244 1 4.24982 12.7782 6.48736 2.14938 -0.0921022 -0.749942 5.12756 -4.0871 0.240413 0.285367 -0.1983
251 1 0.128475 14.4623 5.07716 2.68999 -0.1114 0.508103 0.221297 -4.06309 -0.300696 -0.158156 -0.336221
252 1 1.63436 15.7834 6.37428 -3.12021 0.366244 0.726554 0.454672 -4.01609 -0.261996 -0.124667 0.449656
253 1 3.02926 14.3678 5.05218 0.643288 -2.70259 -2.00417 0.351002 -4.03051 -0.174998 0.111667 -0.217083
254 1 4.32401 15.7314 6.5801 -3.29084 -1.84392 -1.68306 0.26878 -4.03241 -0.254107 0.41688 -0.209046
146 1 7.13468 12.9886 3.53823 1.04428 0.1527 -2.62964 0.131439 -3.93598 0.359171 -0.184263 0.317628
156 1 7.1141 15.8395 3.56489 -5.45427 -4.00032 2.42238 0.288221 -4.05162 0.162846 0.112879 0.193577
246 1 7.17912 12.9922 6.53155 0.991656 -1.68864 -0.448699 0.135666 -4.02924 0.393239 0.0532948 -0.257352
255 1 5.79332 14.3612 4.97012 0.949383 2.2935 -3.25327 0.175882 -4.10535 -0.973942 -0.147525 0.616616
256 1 7.19239 15.8423 6.3957 -0.861153 0.781607 -0.146585 0.368783 -4.05924 0.369262 -0.784016 0.08198
257 1 8.60857 14.4287 5.06847 -2.00567 3.54744 2.76289 0.0724208 -4.07369 -0.262083 -0.675083 -0.61798
148 1 10.0789 12.8625 3.63458 2.53119 -0.204599 1.59625 0.297079 -4.0329 -0.538356 0.530275 0.0328423
150 1 12.8144 12.9078 3.60106 0.842405 -1.04171 -0.584461 0.155348 -4.13258 0.42162 0.495307 -0.071523
158 1 10.0599 15.8093 3.61772 1.95172 -4.28031 -2.67566 0.250551 -4.0442 0.0648397 -0.0640436 0.0489097
160 1 12.7974 15.8078 3.51929 2.05154 2.79304 -0.0709358 0.186132 -4.07965 0.0683027 -0.251565 0.811536
248 1 10.001 13.0598 6.53647 1.15591 3.93167 -3.97146 0.326142 -4.03912 0.498203 0.185021 -0.289148
250 1 12.9049 12.9601 6.44047 1.45982 -1.9964 -1.75047 0.254309 -4.09365 -0.391088 -0.0307431 0.538377
258 1 10.0849 15.781 6.49883 3.15439 -2.57917 -3.22034 0.184448 -4.12109 -0.260815 -0.239571 0.327147
259 1 11.5154 14.2983 5.01298 2.36546 0.76793 -0.871017 0.266078 -4.0883 -0.57682 0.504402 -0.160027
260 1 12.7221 15.7462 6.52625 1.07372 0.97037 -2.70378 0.526745 -4.01111 0.383248 -0.0348729 0.391311
162 1 1.61205 18.4318 3.55085 0.103087 0.473685 0.329909 4.85368 -4.07513 -0.208652 0.451602 0.438597
164 1 4.41893 18.6151 3.43861 -0.211573 3.22505 -5.20284 0.336971 -4.05425 -0.319314 -0.725524 0.526966
262 1 1.64124 18.6991 6.4762 -1.57751 0.894061 -4.43727 0.342735 -4.1065 -0.721815 -0.707528 -0.125038
263 1 3.02324 17.1738 4.99985 -2.37006 -0.133771 0.32695 0.258219 -4.09612 -0.361637 0.499435 0.195158
264 1 4.25569 18.5351 6.61832 2.99979 1.41468 -0.253245 0.474057 -4.05776 0.824558 0.332951 -0.605651
271 1 0.239882 19.931 4.90966 -2.9132 -1.24747 -1.34561 0.584586 -4.06403 -0.375087 -0.0574049 0.552232
273 1 3.06119 20.0027 5.01567 0.40391 -0.0741893 3.19324 0.35508 -4.09386 -0.255428 0.478144 -0.0128514
166 1 7.16241 18.5363 3.53285 0.698547 0.150344 -2.49931 0.169636 -4.15028 0.0132783 -0.0771746 0.126058
265 1 5.71847 17.1429 5.13294 -1.6126 -0.82668 -3.54668 0.416151 -4.09178 -0.781283 0.197148 -0.370863
266 1 7.25348 18.553 6.39692 1.95445 3.37989 -0.145865 0.535925 -4.01344 -0.630784 0.198185 0.157456
267 1 8.63962 17.1234 4.94222 1.62128 1.24999 -1.44411 0.257846 -4.04458 -0.0143429 0.0958137 0.426967
275 1 5.66392 19.9514 5.02184 0.0670137 -1.38317 -3.87798 0.29766 -4.08499 0.622226 0.293771 0.171887
277 1 8.52362 20.0544 5.01133 0.898333 -0.0775842 -0.479706 0.251369 -4.11747 0.240902 0.280808 0.322584
261 1 14.1769 17.1487 5.09074 3.22524 -0.724689 1.23685 0.35122 -4.11563 0.436727 0.220677 -0.259871
168 1 9.9888 18.5753 3.57483 -3.61858 0.233632 -1.83299 0.198017 -4.05556 -0.424637 -0.283107 -0.0380518
170 1 12.8038 18.6463 3.67868 0.900172 4.64776 -2.52583 0.319892 -4.08742 -0.213279 -0.306929 -0.488457
268 1 9.90461 18.5053 6.59335 4.57801 -0.241298 0.328247 4.46055 -4.03701 0.237565 0.196304 -0.495409
269 1 11.4148 17.1891 5.1945 1.22914 3.37173 -1.05524 0.377526 -4.05184 0.490443 0.273316 -1.23285
270 1 12.909 18.7314 6.48135 -1.75346 -1.91228 -0.862528 0.527193 -4.06053 -0.278912 -0.538014 0.583109
279 1 11.3598 20.0486 4.9899 2.0114 -4.45816 0.994583 0.257381 -4.03753 -0.277211 -0.208067 0.17784
172 1 1.47279 21.4257 3.57787 2.33301 -0.225112 2.95214 0.269076 -4.08601 1.0283 -0.159444 -0.29698
174 1 4.32705 21.4567 3.42779 -1.27528 -0.710527 -1.51037 0.265353 -4.08818 0.0930223 -0.0747509 0.444911
182 1 1.5749 24.1646 3.53126 -0.784188 -3.79054 -2.16947 0.0645083 -4.12882 -0.530908 0.141907 0.0863671
184 1 4.3073 24.238 3.48947 -0.587332 0.565944 -1.32797 0.143042 -4.07315 -0.0654727 -0.393019 -0.373193
272 1 1.50093 21.4332 6.40263 -1.3891 0.701157 2.48604 0.36025 -4.12337 0.472967 -0.475609 0.74411
274 1 4.4257 21.4489 6.56091 2.59471 -0.91757 -0.537123 0.258113 -4.02314 0.00463026 -0.187763 -0.604204
281 1 0.183488 22.7914 5.07418 -2.74019 0.616667 0.622568 0.149695 -4.00372 -0.614801 0.627192 -0.37018
282 1 1.52472 24.1909 6.56867 -1.23117 0.365724 -0.651941 0.158373 -4.09194 0.788527 0.30913 -0.864877
283 1 2.92311 22.8102 5.09159 1.18139 2.06881 4.32688 0.169118 -4.03322 0.417827 0.14883 0.0337981
284 1 4.42474 24.2671 6.53693 -2.88227 1.45219 3.65201 0.161257 -4.02374 0.208713 -0.329 -0.0430385
176 1 7.06694 21.3141 3.59813 -3.95137 -1.5893 -1.01736 0.388279 -4.06032 0.0788989 -0.174428 -0.877467
186 1 7.17879 24.1447 3.4409 2.78581 2.06017 1.88695 0.187339 -3.99346 -0.0691807 0.961802 0.236319
276 1 7.10716 21.4372 6.55021 2.60993 -1.18025 -2.38511 0.238019 -4.05181 0.420178 -0.431158 -0.380115
285 1 5.85589 22.7635 4.88977 1.31531 1.02106 -0.50399 0.528723 -4.01777 -1.19303 0.790833 1.11837
286 1 7.16944 24.2408 6.53103 1.08031 -1.08147 0.839848 0.272313 -4.04331 -0.313619 -0.346316 -0.551643
287 1 8.6565 22.7436 4.93465 2.42 3.87829 -0.705154 0.329577 -4.20376 -0.531407 0.218017 0.521938
178 1 9.99102 21.4199 3.49409 -1.13098 -1.50552 3.15931 0.236976 -4.07704 0.381541 -0.262982 -0.107064
180 1 12.8404 21.4228 3.62339 -0.471497 0.0061306 0.269058 0.28611 -4.19273 0.0427092 0.12165 -0.103444
188 1 10.0407 24.0693 3.39076 -1.30348 -2.27273 0.479064 0.801603 -3.97351 -0.245028 0.821095 0.0529889
190 1 12.925 24.1389 3.50411 -1.55903 -2.12372 1.13416 0.399039 -4.00199 -0.954997 0.323635 0.371201
278 1 9.94955 21.4304 6.60002 1.38589 -0.978514 1.96516 0.314947 -3.99609 0.200825 -0.67332 -0.963185
280 1 12.8739 21.3633 6.41635 1.61778 1.13426 1.57654 0.286957 -4.14536 0.0612135 0.312811 0.0683589
288 1 10.0194 24.1956 6.58105 2.68269 2.22443 1.78439 0.375433 -4.01504 -0.647422 -0.244994 -0.349642
289 1 11.3072 22.8471 5.01657 -3.96248 4.07387 -0.259648 0.485782 -4.10486 0.0819785 -0.497433 0.329775
290 1 12.8777 24.1232 6.47095 1.06046 -1.98762 3.24564 0.235465 -4.10363 -0.10268 0.379885 0.144348
192 1 1.54582 26.9795 3.56325 0.832332 -0.820942 0.130328 0.144622 -4.15717 0.0207197 0.0555914 -0.124116
194 1 4.33343 27.1078 3.5074 -1.61671 -3.20912 1.28134 0.248919 -4.07013 -0.236454 -0.620011 -0.687052
291 1 0.123486 25.6243 5.13102 -1.91934 -0.395923 -0.219087 0.367802 -4.00682 0.215091 -0.0474362 -0.412184
292 1 1.58125 27.1181 6.38855 0.521729 -0.104332 -0.21211 0.258989 -4.13683 -0.13807 -0.930412 0.336926
293 1 3.0799 25.6086 4.98932 2.80973 1.17343 -0.298043 0.378998 -4.0067 -0.92471 0.111136 0.464328
294 1 4.2495 27.1204 6.46369 -1.17778 2.9951 1.58236 0.250232 -4.05637 0.549087 -0.351494 -0.176504
196 1 7.3038 27.0489 3.6454 3.37805 -2.98627 4.17109 0.567109 -4.01998 -1.04195 -0.18231 -1.00901
295 1 5.73558 25.636 4.96901 2.43808 0.681994 -1.51506 0.15387 -4.10199 0.303093 0.258058 0.372702
296 1 7.17419 27.0665 6.37864 0.309675 6.50899 -1.89168 0.240052 -3.97952 0.00361703 0.578733 0.19661
297 1 8.56397 25.5256 5.01427 -0.134748 1.31643 -3.31811 0.341877 -4.11043 1.0444 0.463619 -0.205082
209 1 11.3537 28.3011 5.07953 -0.393176 -1.47754 0.78913 5.62495 -3.9788 0.650771 0.619034 -1.01732
198 1 9.95313 27.0869 3.44703 0.689763 -0.698924 -1.31982 0.29445 -3.91613 0.660348 -0.400165 1.09174
200 1 13.0099 27.0067 3.49952 5.30296 -0.270392 0.651806 5.2674 -4.00175 -0.379497 0.167953 0.0170245
298 1 9.9521 27.1594 6.53953 1.28797 -2.74568 -4.13594 0.324741 -4.06099 -0.759254 -1.0547 0.244457
299 1 11.357 25.6421 5.05573 0.613569 6.18239 1.53807 5.9045 -4.01818 0.1566 0.0725762 -0.192593
300 1 12.9347 27.0657 6.53198 -0.577292 -1.28953 -3.83829 0.295463 -4.07786 -0.543866 0.122161 0.0853717
301 1 0.190771 0.330155 7.83963 0.5675 -0.168496 -2.46061 4.72344 -4.12339 -0.0595899 -0.337755 0.383104
302 1 1.52998 1.64637 9.56843 -1.42736 -3.15682 0.972455 0.280002 -4.07774 0.0553382 -0.462517 -0.614187
303 1 2.87995 0.257353 7.9896 0.341516 -0.0404191 -2.60214 0.180882 -4.10546 -0.284441 -0.513222 0.0231821
304 1 4.29008 1.6221 9.41376 -4.04083 -0.468429 4.02966 0.150247 -4.04067 0.136489 0.724684 0.44532
311 1 0.149724 2.85167 7.98152 -1.74976 0.28104 0.763369 5.00509 -4.02852 -0.14782 1.62262 -0.586686
313 1 2.89377 2.99568 7.87105 0.148637 -0.416692 -0.495992 0.335462 -4.00359 -0.434283 0.736914 1.03678
403 1 2.9679 0.297361 10.9641 0.394335 0.406084 2.23505 0.173664 -4.08487 -0.165898 -0.84469 -0.377821
411 1 0.156785 3.04543 10.9199 0.660313 -0.658618 -1.38298 0.136084 -4.10785 -0.591849 0.195475 0.240942
413 1 2.87494 3.0559 11.0273 -3.05234 -3.9865 -0.430171 0.32411 -4.12666 0.498352 0.131028 -0.5368
305 1 5.63949 0.272746 7.9854 -2.6762 0.601797 -1.53878 0.270979 -3.99966 1.075 0.493517 -0.732571
306 1 7.16827 1.7968 9.44238 -0.497955 1.38302 -0.554626 0.423606 -3.95191 -0.185914 -1.2151 0.46662
307 1 8.54451 0.339894 8.02865 2.06573 -1.47317 -0.377265 0.313022 -4.09628 -0.461119 -1.06139 0.271284
315 1 5.88369 2.98404 7.9039 0.746495 3.22544 0.384377 0.62026 -4.04956 -0.843808 0.00412467 0.13198