ITEM: TIMESTEP
25250
ITEM: NUMBER OF ATOMS
2000
ITEM: BOX BOUNDS pp pp pp
1.0838953229856951e-01 1.4221610467701321e+01
2.1677906459713903e-01 2.8443220935402643e+01
-2.7915952804356092e-01 5.7599159528043124e+01
ITEM: ATOMS id type x y z vx vy vz c_csym c_peratom fx fy fz
2 1 1.62332 1.66863 1.17519 -0.282889 -3.25185 -0.636516 0.277305 -4.10334 -0.257541 0.324923 -0.599453
4 1 4.35789 1.61575 1.10493 0.990702 -5.33602 3.45801 0.217896 -4.14108 0.279659 -0.03093 0.483087
11 1 0.115605 3.14255 -0.23241 0.617832 -0.194419 3.50607 0.202727 -4.06574 -0.411271 -0.315009 -0.403656
101 1 0.126621 0.284403 2.58836 -1.57173 1.46596 2.1275 0.151496 -4.10566 -0.315147 -0.0206794 -0.213446
103 1 2.85007 0.270771 2.64639 0.287695 0.367304 -1.8153 0.236923 -4.00357 0.37292 -0.0790054 -0.206582
111 1 0.168447 3.08626 2.61412 -2.2925 0.592843 0.179022 0.13015 -4.15067 -0.109767 -0.20548 0.045528
113 1 2.87763 3.13123 2.66815 -1.71434 2.42111 -1.1208 0.325747 -4.07911 0.108898 -0.145775 0.188988
13 1 2.94284 3.10367 -0.260639 -0.0706192 -1.95523 0.774801 0.0715345 -4.03612 -0.421612 -0.194361 0.0261061
6 1 7.17995 1.58532 1.16861 -1.53139 -1.81767 -2.43971 0.224687 -4.10426 0.159409 0.846899 -0.196426
17 1 8.63608 3.25517 -0.211776 -1.24355 -0.0988133 -0.860341 4.90562 -4.05936 -0.186512 -0.818569 -0.666267
105 1 5.90739 0.22905 2.61553 0.812795 -1.48127 -4.16198 0.293553 -4.08094 -0.594068 -0.0710172 0.0661689
115 1 5.79048 3.13764 2.60118 -0.932742 0.818202 0.0439582 0.179354 -4.04647 -0.451736 -0.338159 -0.106575
117 1 8.60233 3.08029 2.67942 0.475293 0.415756 -1.302 0.156994 -4.06625 -0.381458 0.364957 -1.1219
15 1 5.86915 3.09703 -0.223552 -1.1078 -3.23994 -0.243916 0.287586 -4.01871 -0.282682 0.195523 -0.29297
8 1 9.98472 1.71462 1.05637 1.02028 2.64764 -1.65962 0.369856 -4.05528 -0.476046 0.155829 1.29162
9 1 11.3244 0.287262 -0.181456 -0.628437 1.37052 0.162777 0.379793 -4.04927 1.11251 -0.208807 -0.645651
10 1 12.8557 1.68831 1.10545 -0.261261 2.58464 0.684826 0.129708 -4.03669 -0.44537 0.574899 0.500768
109 1 11.3921 0.306018 2.58642 4.17545 -4.26001 3.01885 0.166115 -4.09097 0.0467665 -0.43688 0.140802
119 1 11.4562 3.11085 2.53378 -0.877516 0.612354 1.13148 0.148738 -4.11228 -0.271668 -0.504085 -0.105314
12 1 1.52356 4.6359 1.07572 1.18436 1.40208 1.05812 0.554364 -4.05721 0.0246791 -0.407418 0.609899
14 1 4.34915 4.42365 1.26567 -0.761965 1.11821 -1.53086 0.268352 -4.10079 -0.301911 0.568807 -0.438552
22 1 1.54026 7.32431 1.10226 0.529166 1.27637 -0.648244 0.23435 -4.04508 0.176088 -0.372849 0.656351
23 1 3.01689 5.92797 -0.25237 4.21453 0.286138 -0.65637 0.221064 -4.04824 -0.251374 -0.185004 -0.151208
24 1 4.35552 7.36387 1.17032 0.718611 1.41969 0.425215 0.104691 -4.03066 -0.50047 0.166092 -0.251989
121 1 0.132435 5.82793 2.60737 -2.35864 3.10392 -0.471262 0.182263 -4.0397 0.0150236 0.222217 -0.0282878
123 1 3.01618 5.86763 2.69972 1.00139 1.8653 -1.24788 0.251317 -4.13457 -0.563819 0.00545307 -0.0422895
16 1 7.14135 4.5226 1.24512 0.603539 0.154603 0.133915 0.149531 -4.06074 0.141432 0.0107346 -0.565547
25 1 5.70759 5.92495 -0.164808 -0.827089 1.1553 2.35682 0.310137 -4.14174 0.0125468 -0.680496 -0.936257
26 1 7.1412 7.16975 1.12227 -0.0337704 2.62343 0.778117 0.520725 -3.9353 0.6278 1.3329 1.00277
125 1 5.74127 5.95799 2.64937 -0.136011 -2.75282 -0.154075 0.137618 -4.19664 0.362698 -0.172312 0.00154386
127 1 8.57446 5.88387 2.51807 -1.51658 -3.67076 0.00771245 0.348888 -4.09692 0.149401 0.0200933 0.702098
18 1 10.0587 4.47472 1.17175 2.01504 1.15568 0.108705 0.2081 -4.05577 -0.23391 0.373729 0.0743567
20 1 12.7939 4.54238 1.13912 -0.022531 3.00342 -1.17168 0.0581365 -4.12272 0.12889 -0.25399 0.301328
28 1 10.1169 7.35391 1.25825 1.08986 -1.21663 1.80841 0.396539 -4.02678 -0.581229 -0.0674068 -0.0546358
29 1 11.4127 5.98723 -0.261848 1.3822 1.47477 -0.555896 0.0533521 -4.12562 -0.40888 -0.381847 -0.240896
30 1 12.8531 7.28188 1.2307 0.362699 -0.519128 0.486825 0.134072 -4.14375 0.163465 0.440527 0.0852989
129 1 11.3642 5.90889 2.6563 -0.995542 1.01394 2.2528 0.107048 -4.10817 0.4287 -0.00303655 -0.136932
32 1 1.48279 10.1923 1.1047 2.66336 -1.18469 0.933482 0.214426 -4.12898 0.240999 -0.350942 0.394149
34 1 4.32744 10.195 1.10559 -3.42019 -1.92301 1.41173 0.182608 -4.07818 0.102909 -0.340786 0.517522
43 1 2.92107 11.628 -0.257376 2.17426 0.782241 3.50485 0.112016 -4.09609 -0.101568 -0.723832 -0.423697
133 1 2.87707 8.77788 2.63978 -1.44944 0.975575 0.710255 0.0893045 -4.07933 0.345898 0.00662365 -0.0987949
141 1 0.146359 11.6297 2.52869 -2.20193 -7.04944 -1.51669 0.295914 -4.11623 -0.137085 0.317619 0.542409
143 1 2.92416 11.521 2.61685 -0.572232 1.1909 1.77002 0.158816 -4.1216 -0.358389 -0.0424788 -0.657092
36 1 7.17897 10.1662 1.21626 0.10168 3.47717 0.174941 0.160807 -3.9941 0.260063 -0.270925 -0.217045
47 1 8.63625 11.4798 -0.178813 -1.46078 2.66256 0.234251 0.273564 -4.07375 -0.088679 -0.31736 -0.66657
135 1 5.71447 8.72482 2.71391 -0.880733 0.590278 -0.109653 0.278079 -4.09356 0.359032 -0.180547 -0.675979
137 1 8.61908 8.74613 2.55388 -4.19951 1.4167 -2.48788 0.34707 -4.11138 -0.0361441 -0.109602 0.245055
145 1 5.78797 11.4174 2.61937 0.913579 -3.10787 0.676852 0.313537 -4.06854 -0.0444947 0.705548 0.17443
147 1 8.63173 11.5707 2.71931 -2.52053 -2.66134 -2.016 0.181007 -4.0895 -0.272752 0.576028 -1.07629
37 1 8.64539 8.6808 -0.149779 -0.410704 1.96136 0.795798 0.349823 -4.14028 -0.266404 0.522131 -0.223787
41 1 14.1834 11.5242 -0.182633 -1.35835 -5.95404 3.83557 0.233324 -4.06518 -0.158139 0.225935 -0.679361
131 1 14.189 8.78043 2.73424 -1.59748 2.05417 3.03081 0.376013 -4.0224 0.831664 -0.721011 -0.7125
38 1 10.1092 10.2499 1.28287 0.647054 3.02786 -2.05404 0.490154 -4.07161 -1.17919 -0.753815 0.2213
39 1 11.3428 8.78317 -0.228141 2.80774 -0.622395 -1.00191 0.222955 -4.09618 0.741441 0.0661945 0.147725
40 1 12.8549 10.1114 1.29991 -1.75728 -0.634733 -0.267602 0.231065 -4.10252 -0.153273 0.114634 -0.91754
139 1 11.4119 8.69776 2.70145 -0.425376 2.4171 -0.0430739 0.106094 -4.09803 0.321881 0.12197 -0.234665
149 1 11.4267 11.5446 2.70231 -0.904464 -0.906018 0.248794 0.171081 -4.07499 0.0416321 0.232557 -0.338455
49 1 11.351 11.4979 -0.200257 -3.94296 -1.72452 -3.57845 0.141818 -4.04755 0.771861 0.58075 -0.561592
42 1 1.60077 12.9976 1.08859 -0.841826 -0.173751 0.753914 0.41321 -4.0835 -0.818661 0.568339 0.17655
44 1 4.30049 12.9516 1.07376 -1.17519 0.372824 -0.13007 0.104504 -4.15567 0.641095 0.082555 0.551792
52 1 1.58776 15.7356 1.31279 -0.585983 1.26946 1.71295 0.644298 -4.01037 -0.718046 -0.133568 -0.883428
54 1 4.38463 15.6552 1.16705 0.269637 0.959657 1.9614 0.262535 -4.08769 -0.335044 0.515327 -0.192883
153 1 2.9946 14.2978 2.62967 -3.03426 -0.361765 3.65674 0.163455 -4.01089 -0.229542 0.234773 0.142374
46 1 7.13899 12.8477 1.14303 -0.042375 -0.703018 -2.37022 0.220039 -4.04301 -0.180596 0.227514 -0.0541643
56 1 7.08452 15.7726 1.0898 0.19616 0.505449 -1.21975 0.239116 -4.0866 0.082874 -0.504875 -0.169828
155 1 5.76502 14.3443 2.57409 -0.699273 2.50818 -2.71856 0.102278 -4.10344 -0.149905 -0.351286 0.571394
157 1 8.53251 14.4644 2.6562 1.77519 1.9958 -4.01974 4.91732 -4.11059 -0.0702384 -0.56749 -0.067266
57 1 8.49816 14.3386 -0.14183 5.27468 2.46447 0.151665 0.466596 -4.00482 0.547815 0.183873 -0.929321
51 1 14.0057 14.3518 -0.278753 5.08997 3.62125 -2.07853 4.61781 -4.01106 1.2761 -0.256779 -0.282327
151 1 14.2009 14.4155 2.63787 -4.71089 2.01634 -0.85659 0.1179 -4.02222 0.0167061 -0.420332 -0.256018
48 1 9.93985 13.0563 1.19253 2.86016 2.34417 0.701272 0.26617 -4.09038 0.679706 -0.553831 0.0802926
50 1 12.7181 12.9904 1.18989 0.559624 -1.36974 -0.820506 0.172097 -4.09213 -0.0433629 -0.235905 0.276175
58 1 9.99316 15.7186 1.17491 -3.3381 -1.51398 5.38263 0.164352 -4.08755 0.106384 0.595675 0.29947
60 1 12.7967 15.7437 1.18042 1.53771 1.90327 -4.70531 0.109815 -4.07829 -0.271064 0.285325 0.583634
159 1 11.3491 14.3264 2.68677 -0.265735 -1.65506 -3.98071 0.149398 -4.08356 0.317109 0.112067 -0.385983
62 1 1.43944 18.5161 1.21509 0.272627 0.831543 -0.200207 0.114858 -4.0454 0.262566 0.505973 -0.0734766
64 1 4.38586 18.6552 1.21916 1.24428 1.0664 2.86252 4.98494 -4.03302 -0.626558 -1.04682 -0.327469
163 1 2.94245 17.1558 2.52738 0.341627 2.40032 0.506019 0.372862 -4.04091 0.503712 0.439962 0.169403
171 1 0.141802 19.9783 2.72306 -0.0590841 -1.37942 4.27312 0.163327 -4.13197 -0.50721 -0.167967 -0.457347
173 1 2.89555 19.9823 2.60825 0.785649 -1.23368 2.3689 0.142541 -4.12528 -0.306792 -0.595887 0.473552
66 1 7.24355 18.6165 1.2184 2.75597 -4.35103 0.905848 0.357324 -4.17538 -0.701292 -0.262925 0.523739
67 1 8.57677 17.1461 -0.25566 -4.30079 -3.56988 1.31798 0.0495165 -4.1535 -0.33521 -0.164406 -0.100791
165 1 5.78304 17.093 2.5653 1.97311 1.99329 -0.167527 0.233811 -4.05861 -0.170256 0.00857278 0.171067
167 1 8.56005 17.078 2.51358 1.63712 1.01306 -0.622391 0.524025 -4.08384 0.0808059 0.155809 0.966619
175 1 5.70632 20.007 2.6334 -3.42076 -2.85137 2.01629 0.130675 -4.06896 0.643436 0.433755 -0.422486
177 1 8.58858 20.043 2.83262 -1.05917 0.80188 -0.731301 0.915865 -3.99963 -0.345212 -0.884361 -1.00348
75 1 5.71713 19.9361 -0.27001 -4.53949 -0.9021 2.29786 0.124715 -4.08148 0.102724 0.323437 -0.642368
65 1 5.67248 17.193 -0.233062 -1.31158 -3.63153 -0.620776 0.323498 -4.11821 0.338502 -0.122958 0.14176
161 1 14.1852 17.2046 2.72813 -8.06951 -0.86164 0.0732044 0.205316 -4.14115 0.150647 0.120436 -0.563663
68 1 9.83757 18.5862 1.24395 1.01621 0.95189 3.77626 0.494354 -4.12575 0.53765 0.692181 0.141128
70 1 12.7582 18.5098 1.20473 -2.75978 -0.241021 0.901339 0.153552 -4.02396 0.508351 0.303563 -0.476737
169 1 11.4357 17.1907 2.62318 -0.050047 0.778513 1.36961 0.107475 -4.08035 -0.602498 -0.0794068 -0.00281345
179 1 11.4548 19.9395 2.70596 0.478562 4.61523 -0.247094 0.241711 -4.10455 -0.562175 0.231735 -0.529324
69 1 11.3235 17.1806 -0.176682 2.51938 -0.439877 2.89062 0.202864 -4.09682 0.316558 -0.216807 -0.539079
71 1 14.189 20.001 -0.170224 -3.02828 1.71166 0.793185 0.28983 -3.97121 0.174903 -0.428439 -0.358583
61 1 14.2026 17.0274 -0.209284 -2.79754 0.110739 5.17862 0.283553 -4.03661 0.287025 -0.0390791 0.138849
72 1 1.54936 21.3951 1.12463 2.3338 -3.4761 -2.56089 0.16948 -4.14411 -0.548731 -0.374296 -0.0819477
74 1 4.24289 21.3195 1.25013 -0.775897 2.76848 -0.309503 0.346433 -4.1689 0.789989 0.384223 -0.599076
82 1 1.5098 24.075 1.05446 -0.197856 1.54937 -4.05427 0.281019 -4.12847 -0.0370697 0.619841 0.324676
84 1 4.24694 24.1216 1.19622 1.75243 2.83472 -4.12876 0.38279 -4.0218 1.047 0.493526 -0.33342
181 1 0.128659 22.763 2.57338 -3.03311 -1.67311 -0.629939 0.0455984 -4.08656 0.0220944 -0.0350206 -0.115116
183 1 2.89382 22.7594 2.53237 0.572942 -1.11899 -0.365379 0.146614 -4.11768 0.0076634 0.140611 0.559102
76 1 7.14056 21.2635 1.17089 -0.691281 0.193514 1.05787 0.35998 -4.01196 0.0943389 0.858842 -0.180029
86 1 7.25436 24.2668 1.17343 -2.43118 3.29649 -1.15762 0.39511 -3.96903 -0.320526 -0.573581 -0.701966
185 1 5.72509 22.8979 2.53727 3.67767 -2.14848 -3.35625 0.459884 -4.09503 0.670199 -0.80984 0.115419
187 1 8.47118 22.692 2.70273 -0.732136 -0.532565 -1.73565 0.558031 -4.09214 0.769985 0.227251 -0.525815
78 1 9.92402 21.3232 1.1173 -2.14879 -1.2859 1.20999 0.209008 -4.09977 0.259807 0.452945 0.776769
80 1 12.7264 21.3466 1.18967 -2.02506 0.894117 1.33119 0.0629101 -4.04508 1.11519 -0.209313 -0.208498
88 1 9.99398 24.1702 1.21278 -1.34963 2.3224 -3.76156 0.190748 -4.12212 -0.0870862 0.26502 0.0386263
90 1 12.8226 24.1983 1.08536 -3.32555 -1.34099 0.789537 0.173925 -4.06943 -0.613354 -0.0865355 0.617327
189 1 11.404 22.6532 2.55593 1.1462 2.87937 3.03823 0.28065 -4.00758 0.218096 0.638593 0.0811345
92 1 1.49183 27.0716 1.16058 -1.55268 0.823337 -0.21304 0.067911 -4.07712 -0.331047 -0.342047 0.201162
93 1 2.95679 25.6072 -0.260214 -2.98218 -1.24306 2.03838 0.159678 -4.10914 -0.24021 0.430314 -0.449873
94 1 4.31233 27.0701 1.31301 -2.42482 -0.468398 -1.32983 0.625521 -4.01465 -0.45062 0.304414 -0.474058
193 1 2.87926 25.4829 2.54665 -1.0862 0.475835 1.41936 0.398738 -4.03102 -0.19084 0.490379 -0.0679827
5 1 5.72241 28.2956 -0.201402 2.69086 -0.906142 0.0342517 0.554841 -4.06937 0.14981 0.632161 -0.32596
107 1 8.62684 28.3911 2.65007 1.62718 -2.83475 -3.52836 0.287841 -4.11533 -0.267589 0.895907 -0.649218
96 1 7.19496 27.0059 1.16272 3.8854 -2.09663 -3.2721 0.0364555 -4.1115 -0.291443 -0.258877 0.539887
195 1 5.7699 25.6353 2.56114 -1.7019 -1.17403 1.74296 0.121475 -4.08049 -0.0450456 0.0509855 0.510646
197 1 8.65402 25.6862 2.61208 -0.592902 -0.620959 0.00800132 0.312357 -4.11031 -0.529492 -0.969863 0.425739
7 1 8.51249 28.4072 -0.181058 0.305773 -1.36188 3.04787 0.316543 -4.05226 -0.0263518 0.0879165 -0.808848
191 1 14.1954 25.5315 2.57004 -0.0885336 -4.4938 -0.48509 0.20602 -4.00132 0.377558 -0.00281098 -0.595017
98 1 9.85719 27.0277 1.12003 2.60699 4.64685 0.62246 0.384493 -4.1468 1.11488 0.132613 0.108742
100 1 12.8111 27.1397 1.17297 0.688756 2.41483 -3.36628 0.109128 -4.07728 0.29006 -0.388317 0.0526319
199 1 11.3947 25.7747 2.6136 -1.77748 -0.753815 0.440887 0.576031 -4.03457 0.508168 -0.752516 0.102867
99 1 11.3966 25.6653 -0.219035 -3.11862 -0.640777 0.494149 0.135064 -4.08882 -0.163433 0.112282 0.131445
102 1 1.43258 1.58866 4.08745 7.38627 -3.29026 1.48818 0.290922 -4.09195 0.250908 -0.0563518 -0.016747
104 1 4.40471 1.70471 4.0009 -2.62904 -0.431866 -2.50035 0.222588 -4.09904 -0.679053 -0.0943067 -0.553017
202 1 1.64591 1.56967 6.84514 2.02744 3.5456 -1.59179 0.584532 -4.06319 -0.946338 1.07747 0.427808
203 1 2.94499 0.259696 5.46773 -1.3304 -3.48688 0.0854903 0.126101 -4.10908 0.47476 -0.143622 -0.252603
204 1 4.18458 1.68524 6.92301 -0.935437 1.48785 2.63114 4.27533 -4.07559 1.59301 -0.811233 0.0401021
213 1 2.88677 3.08084 5.43488 -2.28947 -0.845795 -1.07431 0.336803 -4.1226 0.154533 -0.172301 0.348782
106 1 7.15632 1.63052 3.98645 0.736671 -1.16949 0.0239501 0.225774 -4.14436 0.448252 0.56335 0.697859
205 1 5.64874 0.299036 5.3388 2.33469 0.995414 0.291621 0.536131 -4.01083 1.09347 -0.629307 1.7212
206 1 7.2548 1.68985 6.88608 -1.46106 -1.55409 1.7364 0.344054 -4.04101 -0.163085 -0.593476 -0.0540588
207 1 8.58474 0.236208 5.54044 1.31666 3.04051 1.49325 0.140389 -4.06294 0.348944 0.0933071 -0.701224
215 1 5.78167 2.95842 5.59066 -1.49422 -2.50707 3.51511 0.498206 -4.05879 -0.127543 0.461294 -0.712651
217 1 8.60442 3.0921 5.48993 -1.80041 2.92479 -5.24384 0.120245 -4.0926 -0.351352 0.139488 0.496051
201 1 14.2143 0.277593 5.54392 -0.76465 1.66164 -3.30675 0.307124 -4.11202 -0.404965 -0.161632 -0.147863
211 1 14.1953 3.09372 5.59555 0.131749 -3.47244 0.658656 0.248143 -4.09416 0.0117469 -0.214707 -0.659603
108 1 9.98023 1.81548 4.10813 1.78008 -0.0382443 0.481447 0.562483 -4.01487 0.480405 -1.21998 -0.18217
110 1 12.7567 1.63776 4.0219 0.143622 0.261967 0.471904 0.155527 -4.00656 0.489763 -0.0847795 0.445832
208 1 9.93587 1.5992 6.97125 -2.11946 3.54369 -4.60115 0.12412 -4.18529 0.233952 0.281027 -0.161301
210 1 12.7168 1.62492 6.99835 1.93469 -2.84729 3.21644 0.350021 -4.052 0.127242 0.135301 -0.256609
219 1 11.4042 3.08595 5.51367 2.96876 -3.6 -0.306264 0.0648611 -4.04791 0.090098 -0.126354 0.339922
112 1 1.47335 4.44722 4.16745 -2.08488 5.53109 1.88305 0.223794 -4.03329 0.323943 0.758149 -0.619801
114 1 4.45714 4.53943 4.17932 0.408107 -1.46821 1.68028 0.423543 -4.09905 -0.384391 -0.649204 -0.403834
122 1 1.5387 7.19477 4.13606 -2.178 2.10286 -1.52883 0.263289 -4.00386 -0.346033 0.50041 -0.273928
124 1 4.30599 7.3213 4.11439 -1.70609 -0.894295 0.386355 0.155752 -3.99338 0.256594 0.577445 0.0038845
212 1 1.5107 4.56417 6.97715 1.71349 1.1107 -0.37813 0.377566 -4.10871 0.171212 -0.486915 0.0430482
214 1 4.35594 4.34938 6.99446 -3.60792 0.888428 1.10906 4.67252 -4.10511 0.412883 0.592066 -0.463232
222 1 1.54559 7.23945 6.95665 2.60978 -1.28947 -2.65909 0.15479 -4.11912 -0.39697 -0.357815 -0.0956324
223 1 3.00176 5.86832 5.55138 -2.9209 -3.41332 -1.19244 0.119344 -4.11916 0.07504 0.189368 0.238627
224 1 4.45542 7.31972 6.99094 2.28078 -2.16034 3.83898 0.289035 -4.05849 -1.18725 0.559971 -0.413097
116 1 7.08446 4.43511 4.1148 -0.717838 -0.661302 1.69127 0.353953 -4.11305 0.543811 0.364009 -0.0764747
126 1 7.33953 7.39572 4.09471 1.37971 -3.46356 0.697126 0.482339 -4.00727 -0.327754 -0.251697 -0.158358
216 1 7.15048 4.45322 6.8465 0.663868 1.20315 1.59813 0.317225 -4.14564 -0.0091897 0.232435 0.577777
225 1 5.7941 6.05956 5.47013 0.299468 -1.75276 -1.18853 0.611863 -4.05793 -0.434956 -0.528037 0.377944
226 1 7.22143 7.27669 6.9593 -1.92098 2.73055 -2.00716 0.109274 -4.14929 0.0602692 0.0553876 0.225673
227 1 8.61587 5.8789 5.47641 -0.532809 -0.371899 0.126652 0.126626 -4.05418 -0.308177 -0.347727 -0.249865
221 1 14.1524 5.86373 5.5648 0.796103 -1.93786 -0.0692733 0.122686 -4.08139 0.3387 0.168872 -0.749185
118 1 10.0291 4.4796 4.07948 -2.00022 0.251406 -1.34662 0.0977339 -4.13891 0.043387 -0.0268272 -0.649382
120 1 12.7727 4.51546 4.01854 -2.93314 -0.0391201 0.674702 0.105742 -4.12583 -0.0298265 0.0559553 0.544316
128 1 10.0124 7.32217 4.03305 -2.7644 2.28321 3.1472 0.120402 -4.11961 -0.599125 -0.140642 0.332504
130 1 12.7448 7.26336 4.03868 -1.8326 -3.86476 -3.53257 0.154262 -4.12341 0.449713 -0.213584 0.00525641
218 1 9.92391 4.44006 6.95375 2.54663 2.02038 1.45237 0.087158 -4.13212 0.504481 0.296958 0.01956
220 1 12.7806 4.44772 6.94593 -0.879614 -1.25736 1.20844 0.0617015 -4.01863 -0.285177 0.0406291 0.101486
228 1 9.92162 7.27115 7.03463 0.0778168 -0.255412 1.79302 0.250097 -4.10672 0.309097 0.188269 0.0589742
229 1 11.2652 5.91426 5.54554 0.58398 1.74186 -1.1864 0.296228 -4.10419 1.00468 0.0372632 -0.259355
230 1 12.8446 7.35538 6.87458 2.31232 0.678649 1.21522 0.270102 -4.07424 -0.736043 -1.08415 0.0808854
132 1 1.49806 10.2454 4.00078 0.926583 1.77752 2.20689 0.197285 -4.04394 0.0212448 -0.731376 0.586698
134 1 4.33421 10.2257 4.1315 -1.95039 -2.01599 -1.69927 0.270044 -4.04962 0.30388 -0.811285 0.226951
232 1 1.56015 10.1641 6.97235 2.12226 0.0705619 -0.681687 0.203327 -4.11666 -0.192887 -0.136456 -0.547182
233 1 2.86938 8.7146 5.56727 -0.683116 0.194601 5.31636 0.142714 -4.07206 0.621872 -0.0622394 -0.732438
234 1 4.30212 10.2221 6.95179 -0.621179 0.157015 -0.123602 5.13715 -4.10644 0.483453 -0.388373 0.296914
241 1 0.149986 11.5192 5.47149 -2.41095 0.904273 -0.0212207 0.0899672 -4.0826 0.106626 0.0787768 -0.124943
243 1 2.87755 11.525 5.42116 -0.234391 0.744033 0.670144 0.231582 -4.05208 -0.321658 0.0449997 0.538012
136 1 7.34978 10.1327 4.10991 0.629619 0.98562 1.20116 0.358834 -4.10133 -0.903083 0.453802 -0.0531849
235 1 5.87066 8.81598 5.44401 0.465343 -1.43871 1.4062 0.365433 -4.09377 -0.785585 -0.454534 0.462753
236 1 7.13391 10.1574 6.97812 2.36863 -0.429749 -0.449581 0.255071 -4.13381 -0.00823225 -0.0254987 0.394081
237 1 8.63235 8.75913 5.65686 2.56455 0.935182 0.542097 0.340915 -4.13756 0.0853676 -0.0356292 -0.346381
245 1 5.87987 11.5851 5.50572 0.240801 -0.541356 -0.243051 0.422246 -4.08023 -0.134623 -0.0860409 -0.167763
247 1 8.6244 11.498 5.61001 0.432483 -3.51449 2.45946 0.187882 -4.14538 0.129559 0.418392 -0.137356
231 1 14.2058 8.74973 5.47051 -0.187028 1.52542 1.17023 0.0849481 -4.14255 0.47078 0.0556866 -0.045538
138 1 9.92992 10.142 4.04591 -1.64946 -2.47072 4.24093 0.259381 -4.15783 0.789533 -0.0618286 0.561725
140 1 12.8378 10.2224 4.05371 -3.06779 0.590986 0.953237 0.186638 -4.14779 -0.709757 -0.491625 0.171228
238 1 10.0462 10.0877 6.97746 4.00462 1.03455 -0.403308 0.137687 -4.05094 0.380599 -0.0089639 0.636413
239 1 11.364 8.67474 5.47756 1.07823 -1.10089 5.00007 0.0953737 -4.11712 0.215664 0.372551 -0.35224
240 1 12.788 10.0949 6.80766 0.473313 1.12475 -2.36237 0.353126 -4.01795 0.540598 0.489423 1.22626
249 1 11.3994 11.5636 5.5997 0.00818624 4.09037 -1.73351 0.234098 -4.09871 -0.374215 -0.274807 -0.275046
142 1 1.52181 13.0509 4.15204 -1.28477 -4.17543 2.9049 0.335581 -4.14662 -0.142842 -0.101141 -0.474582
144 1 4.29805 12.8216 3.99086 1.81958 -2.20134 0.0142737 4.66318 -4.08468 0.671613 0.88074 0.492758
152 1 1.51339 15.8576 4.12885 -0.669006 2.84052 -0.820189 5.05746 -4.1798 0.250486 -0.721378 -0.482347
154 1 4.25725 15.7179 4.04617 2.46855 -1.35996 -1.82568 0.30287 -4.08009 0.658095 0.291403 -0.0589488
242 1 1.53992 12.9165 6.92215 0.280113 3.4737 -1.1283 0.114132 -4.16791 0.11972 0.00328487 -0.0769426
244 1 4.24982 12.7782 6.94796 2.14938 -0.0921022 -0.749942 5.03981 -4.10638 0.11697 0.339529 -0.226691
251 1 0.128475 14.4623 5.56706 2.68999 -0.1114 0.508103 0.218278 -4.08316 0.0618417 -0.0594937 -0.298998
252 1 1.63436 15.7834 6.83724 -3.12021 0.366244 0.726554 0.44142 -4.03114 -0.250194 -0.0454585 0.761568
253 1 3.02926 14.3678 5.5426 0.643288 -2.70259 -2.00417 0.347101 -4.04197 -0.442751 -0.097417 -0.0913697
254 1 4.32401 15.7314 7.03878 -3.29084 -1.84392 -1.68306 0.259617 -4.04188 -0.0466937 0.104841 -0.587725
146 1 7.13468 12.9886 4.0601 1.04428 0.1527 -2.62964 0.130885 -3.95414 0.501309 -0.448452 -0.158524
156 1 7.1141 15.8395 4.0862 -5.45427 -4.00032 2.42238 0.284841 -4.05901 -0.185157 -0.395658 0.156539
246 1 7.17912 12.9922 6.99124 0.991656 -1.68864 -0.448699 0.133638 -4.04395 0.439982 -0.00903304 -0.261182
255 1 5.79332 14.3612 5.46225 0.949383 2.2935 -3.25327 0.173272 -4.13552 -0.62566 -0.083012 0.44528
256 1 7.19239 15.8423 6.85821 -0.861153 0.781607 -0.146585 0.360616 -4.05923 0.741339 -0.886234 0.456514
257 1 8.60857 14.4287 5.55855 -2.00567 3.54744 2.76289 0.0714846 -4.09722 -0.447857 -0.457118 -0.515727
148 1 10.0789 12.8625 4.15445 2.53119 -0.204599 1.59625 0.296541 -4.04773 -0.906294 0.846423 0.0691489
150 1 12.8144 12.9078 4.12162 0.842405 -1.04171 -0.584461 0.153111 -4.14648 0.286714 0.538341 -0.079723
158 1 10.0599 15.8093 4.13794 1.95172 -4.28031 -2.67566 0.246128 -4.06385 0.283843 -0.322873 -0.223724
160 1 12.7974 15.8078 4.04156 2.05154 2.79304 -0.0709358 0.18083 -4.09945 0.159177 -0.453349 0.375091
248 1 10.001 13.0598 6.99606 1.15591 3.93167 -3.97146 0.324789 -4.04726 0.323919 0.197065 0.147067
250 1 12.9049 12.9601 6.90205 1.45982 -1.9964 -1.75047 0.247568 -4.1062 -0.161304 -0.285688 0.590015
258 1 10.0849 15.781 6.9592 3.15439 -2.57917 -3.22034 0.182891 -4.13103 -0.724046 -0.499141 0.0035538
259 1 11.5154 14.2983 5.50421 2.36546 0.76793 -0.871017 0.265026 -4.1015 -0.776106 0.336224 0.461922
260 1 12.7221 15.7462 6.98605 1.07372 0.97037 -2.70378 0.523648 -4.02086 0.936363 0.0907979 0.295219
162 1 1.61205 18.4318 4.07246 0.103087 0.473685 0.329909 0.467171 -4.0916 0.0379587 0.88071 0.165162
164 1 4.41893 18.6151 3.96255 -0.211573 3.22505 -5.20284 0.329782 -4.06289 -0.355248 -0.646821 0.575032
262 1 1.64124 18.6991 6.93704 -1.57751 0.894061 -4.43727 0.34164 -4.12414 -0.61972 -0.257878 -0.253273
263 1 3.02324 17.1738 5.49136 -2.37006 -0.133771 0.32695 0.253956 -4.10761 -0.0736393 0.405557 0.513001
264 1 4.25569 18.5351 7.07621 2.99979 1.41468 -0.253245 0.463917 -4.06312 0.978208 0.237245 -0.691137
271 1 0.239882 19.931 5.40304 -2.9132 -1.24747 -1.34561 0.575268 -4.06689 -0.221799 -0.010164 0.356027
273 1 3.06119 20.0027 5.50685 0.40391 -0.0741893 3.19324 0.351544 -4.11494 -0.313842 0.405572 -0.0118411
166 1 7.16241 18.5363 4.05484 0.698547 0.150344 -2.49931 0.164099 -4.17737 0.266163 -0.335166 -0.0487588
265 1 5.71847 17.1429 5.62168 -1.6126 -0.82668 -3.54668 0.402358 -4.10875 -0.451389 0.534729 -0.536256
266 1 7.25348 18.553 6.85941 1.95445 3.37989 -0.145865 0.526612 -4.03266 -0.973117 -0.10079 0.210971
267 1 8.63962 17.1234 5.43492 1.62128 1.24999 -1.44411 0.25287 -4.06122 -0.20951 0.598383 0.816622
275 1 5.66392 19.9514 5.51289 0.0670137 -1.38317 -3.87798 0.294235 -4.10297 0.405791 -0.0542803 0.26745
277 1 8.52362 20.0544 5.5026 0.898333 -0.0775842 -0.479706 0.248554 -4.13302 0.802532 0.100504 0.139456
261 1 14.1769 17.1487 5.58036 3.22524 -0.724689 1.23685 0.348326 -4.13002 -0.0293461 0.355183 0.225312
168 1 9.9888 18.5753 4.09594 -3.61858 0.233632 -1.83299 0.191594 -4.07958 -0.403238 -0.557127 -0.112544
170 1 12.8038 18.6463 4.19763 0.900172 4.64776 -2.52583 0.312064 -4.09729 0.00406669 -0.776609 -0.616292
268 1 9.90461 18.5053 7.05175 4.57801 -0.241298 0.328247 0.288155 -4.05513 0.46858 0.647099 -0.894455
269 1 11.4148 17.1891 5.68196 1.22914 3.37173 -1.05524 0.365683 -4.06171 0.456587 0.777856 -1.42847
270 1 12.909 18.7314 6.94209 -1.75346 -1.91228 -0.862528 0.522792 -4.0782 -0.780801 -0.429911 0.555342
279 1 11.3598 20.0486 5.48162 2.0114 -4.45816 0.994583 0.251393 -4.05731 -0.495321 -0.274376 0.42452
172 1 1.47279 21.4257 4.09891 2.33301 -0.225112 2.95214 0.265017 -4.10033 1.06231 0.224863 -0.0961754
174 1 4.32705 21.4567 3.95196 -1.27528 -0.710527 -1.51037 0.259184 -4.09981 0.259249 0.0397698 0.382601
182 1 1.5749 24.1646 4.05327 -0.784188 -3.79054 -2.16947 0.0642161 -4.15362 -0.466578 0.537307 0.401886
184 1 4.3073 24.238 4.01235 -0.587332 0.565944 -1.32797 0.142022 -4.08677 0.34705 -0.411424 -0.228814
272 1 1.50093 21.4332 6.86499 -1.3891 0.701157 2.48604 0.351999 -4.13155 0.222108 -0.683832 0.699536
274 1 4.4257 21.4489 7.01999 2.59471 -0.91757 -0.537123 0.252797 -4.03582 0.249948 -0.14004 -0.563363
281 1 0.183488 22.7914 5.56415 -2.74019 0.616667 0.622568 0.145152 -4.01045 -0.374057 0.284383 -0.462437
282 1 1.52472 24.1909 7.02759 -1.23117 0.365724 -0.651941 0.155287 -4.11063 1.03735 -0.133762 -0.983959
283 1 2.92311 22.8102 5.58119 1.18139 2.06881 4.32688 0.163668 -4.05348 0.540869 0.235062 -0.615928
284 1 4.42474 24.2671 6.99651 -2.88227 1.45219 3.65201 0.157017 -4.04395 0.336627 -0.730524 -0.618507
176 1 7.06694 21.3141 4.11876 -3.95137 -1.5893 -1.01736 0.385226 -4.06531 0.181725 -0.132679 -0.609209
186 1 7.17879 24.1447 3.96479 2.78581 2.06017 1.88695 0.184099 -4.00832 -0.00490397 0.784061 0.457492
276 1 7.10716 21.4372 7.00951 2.60993 -1.18025 -2.38511 0.233825 -4.06804 0.331305 0.0069663 -0.308711
285 1 5.85589 22.7635 5.38357 1.31531 1.02106 -0.50399 0.517391 -4.03348 -1.45827 1.41402 1.31492
286 1 7.16944 24.2408 6.99073 1.08031 -1.08147 0.839848 0.263465 -4.05983 -0.0137491 -0.687037 -0.659815
287 1 8.6565 22.7436 5.42751 2.42 3.87829 -0.705154 0.323208 -4.22524 -0.730667 0.25984 1.00288
178 1 9.99102 21.4199 4.01688 -1.13098 -1.50552 3.15931 0.23152 -4.07733 0.775709 -0.0208698 -0.0319395
180 1 12.8404 21.4228 4.14349 -0.471497 0.0061306 0.269058 0.279042 -4.20536 -0.0548583 0.29235 0.040022
188 1 10.0407 24.0693 3.91569 -1.30348 -2.27273 0.479064 0.78641 -3.98474 0.0402983 0.806139 0.25039
190 1 12.925 24.1389 4.02669 -1.55903 -2.12372 1.13416 0.397521 -4.02727 -0.886545 0.19118 0.25083
278 1 9.94955 21.4304 7.05829 1.38589 -0.978514 1.96516 0.304042 -4.00282 0.11176 -0.984432 -0.68326
280 1 12.8739 21.3633 6.87843 1.61778 1.13426 1.57654 0.281317 -4.16699 -0.337326 0.148738 0.190895
288 1 10.0194 24.1956 7.03971 2.68269 2.22443 1.78439 0.364362 -4.02271 -0.574614 0.0898226 0.119146
289 1 11.3072 22.8471 5.50773 -3.96248 4.07387 -0.259648 0.482077 -4.12142 0.119931 -0.31985 0.0727764
290 1 12.8777 24.1232 6.93189 1.06046 -1.98762 3.24564 0.23403 -4.12226 -0.258784 0.102073 0.190362
192 1 1.54582 26.9795 4.0846 0.832332 -0.820942 0.130328 0.142786 -4.18539 -0.426479 0.0695289 -0.383762
194 1 4.33343 27.1078 4.02991 -1.61671 -3.20912 1.28134 0.247418 -4.08641 -0.10275 -0.413387 -0.539413
291 1 0.123486 25.6243 5.6198 -1.91934 -0.395923 -0.219087 0.356889 -4.01779 0.0820702 -0.389034 -0.731236
292 1 1.58125 27.1181 6.85121 0.521729 -0.104332 -0.21211 0.251643 -4.15842 0.126694 -0.698207 0.233722
293 1 3.0799 25.6086 5.48105 2.80973 1.17343 -0.298043 0.377573 -4.02367 -0.833652 -0.2836 0.353976
294 1 4.2495 27.1204 6.92479 -1.17778 2.9951 1.58236 0.248826 -4.07706 0.574042 0.105834 -0.275497
196 1 7.3038 27.0489 4.16504 3.37805 -2.98627 4.17109 0.554777 -4.03646 -0.828411 -0.0693803 -0.724409
295 1 5.73558 25.636 5.46116 2.43808 0.681994 -1.51506 0.150755 -4.12752 0.48506 0.0808139 0.244947
296 1 7.17419 27.0665 6.84151 0.309675 6.50899 -1.89168 0.234609 -3.98879 -0.0836838 0.667589 -0.0440697
297 1 8.56397 25.5256 5.50548 -0.134748 1.31643 -3.31811 0.337305 -4.1382 1.15996 0.00821248 -0.0116392
209 1 11.3537 28.3011 5.56938 -0.393176 -1.47754 0.78913 0.76559 -4.00142 0.853583 1.05621 -0.993856
198 1 9.95313 27.0869 3.9708 0.689763 -0.698924 -1.31982 0.2863 -3.92083 0.357407 -0.621662 1.57796
200 1 13.0099 27.0067 4.0222 5.30296 -0.270392 0.651806 0.921546 -4.01667 -0.593721 0.387761 0.160747
298 1 9.9521 27.1594 6.99905 1.28797 -2.74568 -4.13594 0.32339 -4.06473 -0.4477 -0.85606 0.32323
299 1 11.357 25.6421 5.54607 0.613569 6.18239 1.53807 0.318017 -4.0524 0.186865 0.215027 -0.212875
300 1 12.9347 27.0657 6.99166 -0.577292 -1.28953 -3.83829 0.292597 -4.09462 -0.465665 -0.286995 0.320306
301 1 0.190771 0.330155 8.27214 0.5675 -0.168496 -2.46061 4.65957 -4.13458 0.171111 -0.511182 0.393402
302 1 1.52998 1.64637 9.96503 -1.42736 -3.15682 0.972455 0.270346 -4.08972 0.0830494 -0.405076 -0.185425
303 1 2.87995 0.257353 8.419 0.341516 -0.0404191 -2.60214 0.1788 -4.11597 0.165986 -0.55206 0.0997808
304 1 4.29008 1.6221 9.81358 -4.04083 -0.468429 4.02966 0.147891 -4.06331 -0.00409228 0.853953 0.173451
311 1 0.149724 2.85167 8.41108 -1.74976 0.28104 0.763369 4.93897 -4.05243 0.147121 1.73154 -0.754094
313 1 2.89377 2.99568 8.30291 0.148637 -0.416692 -0.495992 0.327546 -4.01894 -0.327285 0.496794 0.918288
403 1 2.9679 0.297361 11.3317 0.394335 0.406084 2.23505 0.171841 -4.09906 -0.20999 -0.587301 -0.564707
411 1 0.156785 3.04543 11.2884 0.660313 -0.658618 -1.38298 0.133083 -4.12597 -0.454307 0.52942 -0.0111307
413 1 2.87494 3.0559 11.3936 -3.05234 -3.9865 -0.430171 0.313619 -4.14099 0.30953 0.0512992 -0.856252
305 1 5.63949 0.272746 8.41489 -2.6762 0.601797 -1.53878 0.269219 -4.03085 1.03202 0.249383 -0.605368
306 1 7.16827 1.7968 9.8416 -0.497955 1.38302 -0.554626 0.422403 -3.95487 -0.541677 -1.25136 0.165375
307 1 8.54451 0.339894 8.45724 2.06573 -1.47317 -0.377265 0.307521 -4.11198 -0.634664 -0.877575 0.246885
315 1 5.88369 2.98404 8.33508 0.746495 3.22544 0.384377 0.618334 -4.05081 -0.988682 0.459868 0.149347
317 1 8.5575 3.091 8.33629 0.877774 1.33708 0.284955 0.0714828 -4.21059 -0.406007 -0.142609 0.635708