ITEM: TIMESTEP
150500
ITEM: NUMBER OF ATOMS
2000
ITEM: BOX BOUNDS pp pp pp
1.0838953229856951e-01 1.4221610467701321e+01
2.1677906459713903e-01 2.8443220935402643e+01
-3.8145213723619502e+00 6.1134521372361512e+01
ITEM: ATOMS id type x y z vx vy vz c_csym c_peratom fx fy fz
2 1 1.62332 1.66863 -2.1825 -0.282889 -3.25185 -0.636516 0.279628 -3.95975 -0.100399 -0.109331 -0.287356
4 1 4.35789 1.61575 -2.26134 0.990702 -5.33602 3.45801 5.99972 -3.9468 0.199647 -0.0576257 0.343758
11 1 0.115605 3.14255 -3.76206 0.617832 -0.194419 3.50607 0.24753 -3.87889 -0.297477 -0.0254887 -0.489459
101 1 0.126621 0.284403 -0.596692 -1.57173 1.46596 2.1275 0.153479 -3.9934 -0.25156 -0.0907681 -0.508015
103 1 2.85007 0.270771 -0.531571 0.287695 0.367304 -1.8153 0.249154 -3.8487 0.494068 -0.189277 0.274692
111 1 0.168447 3.08626 -0.567785 -2.2925 0.592843 0.179022 0.1354 -3.94918 0.206157 0.199973 -0.411588
113 1 2.87763 3.13123 -0.507154 -1.71434 2.42111 -1.1208 5.91542 -3.91351 -0.239164 -0.273053 0.00279776
13 1 2.94284 3.10367 -3.79374 -0.0706192 -1.95523 0.774801 0.0762146 -3.88411 0.0233672 -0.0705593 -0.0541737
6 1 7.17995 1.58532 -2.18988 -1.53139 -1.81767 -2.43971 0.234823 -3.9316 0.159356 0.760298 0.0698982
17 1 8.63608 3.25517 -3.73891 -1.24355 -0.0988133 -0.860341 9.93674 -3.9282 -0.397396 -0.607648 -0.428733
105 1 5.90739 0.22905 -0.566199 0.812795 -1.48127 -4.16198 0.296613 -3.93389 -0.69939 -0.125005 0.257366
115 1 5.79048 3.13764 -0.582304 -0.932742 0.818202 0.0439582 0.186062 -3.91517 -0.0421468 -0.22431 0.263734
117 1 8.60233 3.08029 -0.494511 0.475293 0.415756 -1.302 0.179748 -3.90306 -0.0329968 0.0707182 -0.859813
15 1 5.86915 3.09703 -3.75212 -1.1078 -3.23994 -0.243916 0.305263 -3.85323 -0.530193 0.0273419 -0.0662013
8 1 9.98472 1.71462 -2.31584 1.02028 2.64764 -1.65962 0.449749 -3.91968 -0.0649957 -0.162634 0.492502
9 1 11.3244 0.287262 -3.70488 -0.628437 1.37052 0.162777 0.436137 -3.91468 0.677707 -0.125035 0.0253095
10 1 12.8557 1.68831 -2.26076 -0.261261 2.58464 0.684826 0.148291 -3.89937 -0.237404 -0.0685813 0.202961
109 1 11.3921 0.306018 -0.598869 4.17545 -4.26001 3.01885 0.174124 -3.91218 -0.00633621 -0.551519 -0.165101
119 1 11.4562 3.11085 -0.657941 -0.877516 0.612354 1.13148 0.164817 -3.95723 0.0236244 -0.724165 0.0129213
12 1 1.52356 4.6359 -2.29413 1.18436 1.40208 1.05812 5.93898 -3.9062 0.158397 -0.396751 0.286363
14 1 4.34915 4.42365 -2.08097 -0.761965 1.11821 -1.53086 0.283253 -3.969 -0.0876864 0.269 -0.714768
22 1 1.54026 7.32431 -2.26434 0.529166 1.27637 -0.648244 5.95663 -3.88672 -0.114237 0.127221 0.335383
23 1 3.01689 5.92797 -3.78446 4.21453 0.286138 -0.65637 0.228381 -3.89019 -0.294513 0.234228 -0.236145
24 1 4.35552 7.36387 -2.18797 0.718611 1.41969 0.425215 0.114239 -3.91533 -0.0448942 0.280309 -0.0730434
121 1 0.132435 5.82793 -0.57536 -2.35864 3.10392 -0.471262 0.19683 -3.90191 0.0552904 0.163696 -0.0367164
123 1 3.01618 5.86763 -0.47173 1.00139 1.8653 -1.24788 5.92866 -3.92819 -0.519153 0.162 -0.129462
16 1 7.14135 4.5226 -2.10403 0.603539 0.154603 0.133915 0.168454 -3.9469 -0.0277344 -0.442606 -0.50517
25 1 5.70759 5.92495 -3.6862 -0.827089 1.1553 2.35682 5.15936 -3.96783 0.155728 -0.69773 -0.464575
26 1 7.1412 7.16975 -2.24188 -0.0337704 2.62343 0.778117 5.33399 -3.85426 0.167021 0.689549 0.309335
125 1 5.74127 5.95799 -0.528222 -0.136011 -2.75282 -0.154075 0.13961 -4.03451 0.0321626 -0.131934 0.315385
127 1 8.57446 5.88387 -0.675566 -1.51658 -3.67076 0.00771245 0.414362 -3.90644 0.259871 -0.166989 0.379465
18 1 10.0587 4.47472 -2.18637 2.01504 1.15568 0.108705 0.222995 -3.94196 -0.350959 0.456809 0.474936
20 1 12.7939 4.54238 -2.22297 -0.022531 3.00342 -1.17168 0.0661911 -3.99506 -0.23538 -0.112411 0.403544
28 1 10.1169 7.35391 -2.08929 1.08986 -1.21663 1.80841 5.63718 -3.91749 -0.750388 -0.430668 -0.0931698
29 1 11.4127 5.98723 -3.79509 1.3822 1.47477 -0.555896 0.0547409 -3.96062 -0.105165 -0.509892 0.0391932
30 1 12.8531 7.28188 -2.1202 0.362699 -0.519128 0.486825 0.139997 -3.9683 -0.0529621 0.196032 0.435414
129 1 11.3642 5.90889 -0.520446 -0.995542 1.01394 2.2528 0.115203 -3.99892 -0.0329795 -0.251912 -0.0225217
32 1 1.48279 10.1923 -2.2616 2.66336 -1.18469 0.933482 0.252373 -4.01788 0.492898 -0.228139 0.130445
34 1 4.32744 10.195 -2.2606 -3.42019 -1.92301 1.41173 0.206892 -3.92694 0.034903 -0.370226 0.265046
43 1 2.92107 11.628 -3.79008 2.17426 0.782241 3.50485 0.126156 -4.01202 0.135122 -0.513766 -0.0565037
133 1 2.87707 8.77788 -0.538986 -1.44944 0.975575 0.710255 0.0942192 -3.85842 0.354374 -0.157489 0.248749
141 1 0.146359 11.6297 -0.663654 -2.20193 -7.04944 -1.51669 0.350161 -3.9812 -0.197052 0.252413 0.564281
143 1 2.92416 11.521 -0.564719 -0.572232 1.1909 1.77002 0.170527 -4.00155 -0.280936 -0.0157958 -0.638862
36 1 7.17897 10.1662 -2.13642 0.10168 3.47717 0.174941 0.176419 -3.85747 0.0225741 -0.0349766 0.0452934
47 1 8.63625 11.4798 -3.70192 -1.46078 2.66256 0.234251 0.304754 -3.93781 -0.0446148 0.237834 -0.610708
135 1 5.71447 8.72482 -0.455806 -0.880733 0.590278 -0.109653 5.85578 -3.88477 0.387789 -0.317301 0.0414693
137 1 8.61908 8.74613 -0.63538 -4.19951 1.4167 -2.48788 0.389664 -3.94979 0.0481997 0.114331 -0.261904
145 1 5.78797 11.4174 -0.561888 0.913579 -3.10787 0.676852 5.87479 -3.90252 -0.213573 0.54672 0.580424
147 1 8.63173 11.5707 -0.449743 -2.52053 -2.66134 -2.016 0.205544 -3.9447 -0.515612 0.107992 -0.916114
37 1 8.64539 8.6808 -3.66934 -0.410704 1.96136 0.795798 5.57399 -3.99035 -0.172712 0.445362 0.137913
41 1 14.1834 11.5242 -3.7062 -1.35835 -5.95404 3.83557 0.265447 -3.96419 -0.367559 0.172575 -0.157176
131 1 14.189 8.78043 -0.432992 -1.59748 2.05417 3.03081 0.443559 -3.86414 0.684608 -0.435537 -0.175643
38 1 10.1092 10.2499 -2.06166 0.647054 3.02786 -2.05404 0.503788 -3.95729 -0.572054 -0.790451 0.409047
39 1 11.3428 8.78317 -3.75727 2.80774 -0.622395 -1.00191 0.224808 -3.94799 0.250403 -0.376059 -0.0158679
40 1 12.8549 10.1114 -2.04255 -1.75728 -0.634733 -0.267602 0.266754 -3.94667 -0.350398 -0.377257 0.0472762
139 1 11.4119 8.69776 -0.469785 -0.425376 2.4171 -0.0430739 0.115357 -4.00167 -0.0885362 0.417867 -0.0511088
149 1 11.4267 11.5446 -0.46882 -0.904464 -0.906018 0.248794 0.185614 -3.96384 -0.185383 0.18837 -0.0171969
49 1 11.351 11.4979 -3.72598 -3.94296 -1.72452 -3.57845 0.148511 -3.90925 0.242068 0.346937 -0.399758
42 1 1.60077 12.9976 -2.27968 -0.841826 -0.173751 0.753914 5.4587 -3.93482 -0.658995 0.0290612 0.221898
44 1 4.30049 12.9516 -2.29632 -1.17519 0.372824 -0.13007 6.24038 -4.00191 0.268278 -0.08745 0.17632
52 1 1.58776 15.7356 -2.0281 -0.585983 1.26946 1.71295 5.29676 -3.80574 -0.283957 0.046851 -0.520468
54 1 4.38463 15.6552 -2.19163 0.269637 0.959657 1.9614 0.288271 -3.98085 -0.475038 0.539321 -0.442644
153 1 2.9946 14.2978 -0.550334 -3.03426 -0.361765 3.65674 0.169747 -3.90546 -0.296304 -0.0602904 -0.0509772
46 1 7.13899 12.8477 -2.21859 -0.042375 -0.703018 -2.37022 5.3741 -3.91078 -0.340571 0.480289 0.0267193
56 1 7.08452 15.7726 -2.27832 0.19616 0.505449 -1.21975 0.276339 -3.99091 0.0446667 0.0651737 -0.0313542
155 1 5.76502 14.3443 -0.612707 -0.699273 2.50818 -2.71856 0.10555 -3.93847 0.212308 -0.212877 -0.0855002
157 1 8.53251 14.4644 -0.520558 1.77519 1.9958 -4.01974 5.33184 -3.93094 -0.0363972 -0.536415 0.136187
57 1 8.49816 14.3386 -3.66041 5.27468 2.46447 0.151665 0.561788 -3.82955 0.11277 0.120572 -0.568471
51 1 14.0057 14.3518 -3.81407 5.08997 3.62125 -2.07853 9.75566 -3.85186 1.1414 0.0245711 -0.394501
151 1 14.2009 14.4155 -0.541132 -4.71089 2.01634 -0.85659 0.131236 -3.85195 0.117809 -0.462558 0.0532348
48 1 9.93985 13.0563 -2.16304 2.86016 2.34417 0.701272 5.35809 -3.93172 0.319085 -0.681175 0.206305
50 1 12.7181 12.9904 -2.166 0.559624 -1.36974 -0.820506 0.189552 -3.93661 0.0681643 0.0451342 -0.144795
58 1 9.99316 15.7186 -2.18281 -3.3381 -1.51398 5.38263 0.18539 -3.98593 0.139323 0.239294 0.00155623
60 1 12.7967 15.7437 -2.17664 1.53771 1.90327 -4.70531 0.116026 -3.99155 -0.0662686 0.2534 0.388356
159 1 11.3491 14.3264 -0.486262 -0.265735 -1.65506 -3.98071 0.156906 -3.94525 0.411922 0.144145 -0.163491
62 1 1.43944 18.5161 -2.13772 0.272627 0.831543 -0.200207 0.11843 -3.89793 0.243006 0.387108 -0.0866655
64 1 4.38586 18.6552 -2.13316 1.24428 1.0664 2.86252 5.49231 -3.90533 -0.569597 -0.378407 0.359468
163 1 2.94245 17.1558 -0.665123 0.341627 2.40032 0.506019 0.427678 -3.9272 0.53203 -0.0162054 0.432373
171 1 0.141802 19.9783 -0.445539 -0.0590841 -1.37942 4.27312 0.183324 -4.00302 -0.704629 -0.0600194 -0.35585
173 1 2.89555 19.9823 -0.574373 0.785649 -1.23368 2.3689 0.153103 -3.98023 -0.326891 -0.437806 0.328242
66 1 7.24355 18.6165 -2.13401 2.75597 -4.35103 0.905848 4.96829 -3.98912 -0.505205 0.312489 0.165396
67 1 8.57677 17.1461 -3.78815 -4.30079 -3.56988 1.31798 0.0496265 -4.02365 -0.23319 -0.126567 0.411659
165 1 5.78304 17.093 -0.62257 1.97311 1.99329 -0.167527 0.250131 -3.93181 -0.414636 0.461589 -0.0672715
167 1 8.56005 17.078 -0.680608 1.63712 1.01306 -0.622391 4.90614 -3.97234 0.0626248 -0.234066 0.454138
175 1 5.70632 20.007 -0.546151 -3.42076 -2.85137 2.01629 0.139385 -3.94256 0.384424 0.348322 0.125565
177 1 8.58858 20.043 -0.322595 -1.05917 0.80188 -0.731301 5.38457 -3.90498 -0.28502 -0.294102 -0.413708
75 1 5.71713 19.9361 -3.80425 -4.53949 -0.9021 2.29786 6.44429 -3.9286 -0.216832 0.180656 -0.301899
65 1 5.67248 17.193 -3.76279 -1.31158 -3.63153 -0.620776 0.34714 -3.96624 0.440271 -0.0796037 -0.0692336
161 1 14.1852 17.2046 -0.43985 -8.06951 -0.86164 0.0732044 0.231028 -4.00869 -0.0725297 0.189209 -0.264809
68 1 9.83757 18.5862 -2.10534 1.01621 0.95189 3.77626 5.56335 -3.96591 0.765282 0.679872 0.0211876
70 1 12.7582 18.5098 -2.14935 -2.75978 -0.241021 0.901339 0.160992 -3.85762 0.121754 0.55915 0.0927892
169 1 11.4357 17.1907 -0.557621 -0.050047 0.778513 1.36961 0.114639 -3.92322 -0.601525 -0.170994 0.429454
179 1 11.4548 19.9395 -0.464727 0.478562 4.61523 -0.247094 6.17463 -3.96091 0.0612825 0.246738 -0.43794
69 1 11.3235 17.1806 -3.69952 2.51938 -0.439877 2.89062 0.234963 -3.92201 0.161829 -0.300399 -0.133401
71 1 14.189 20.001 -3.69228 -3.02828 1.71166 0.793185 0.320766 -3.82464 -0.268074 -0.664426 0.0173472
61 1 14.2026 17.0274 -3.73611 -2.79754 0.110739 5.17862 0.31109 -3.87963 0.295454 0.282646 0.330432
72 1 1.54936 21.3951 -2.23924 2.3338 -3.4761 -2.56089 5.9484 -4.00545 -0.347097 -0.336124 -0.410573
74 1 4.24289 21.3195 -2.09841 -0.775897 2.76848 -0.309503 0.393823 -4.07335 0.6314 -0.259809 -0.610598
82 1 1.5098 24.075 -2.31798 -0.197856 1.54937 -4.05427 0.306935 -3.98292 -0.350017 0.413915 -0.0998058
84 1 4.24694 24.1216 -2.1589 1.75243 2.83472 -4.12876 5.31647 -3.90374 0.528112 0.525757 -0.526897
181 1 0.128659 22.763 -0.613495 -3.03311 -1.67311 -0.629939 0.0490472 -3.98842 -0.292132 -0.0812033 -0.0511602
183 1 2.89382 22.7594 -0.659521 0.572942 -1.11899 -0.365379 0.177378 -4.0399 0.100772 0.39874 0.413688
76 1 7.14056 21.2635 -2.18733 -0.691281 0.193514 1.05787 5.56971 -3.81401 0.295686 0.395993 0.478607
86 1 7.25436 24.2668 -2.18448 -2.43118 3.29649 -1.15762 5.92466 -3.82601 0.00215837 -0.558068 -0.14832
185 1 5.72509 22.8979 -0.654027 3.67767 -2.14848 -3.35625 0.483717 -3.9705 -0.180288 -0.549717 0.228393
187 1 8.47118 22.692 -0.468348 -0.732136 -0.532565 -1.73565 5.42247 -3.93336 0.296818 0.112679 -0.315438
78 1 9.92402 21.3232 -2.24746 -2.14879 -1.2859 1.20999 0.237431 -3.93948 -0.0813287 0.316191 0.551594
80 1 12.7264 21.3466 -2.16625 -2.02506 0.894117 1.33119 0.0658598 -3.90454 0.290774 0.4059 -0.0562103
88 1 9.99398 24.1702 -2.14032 -1.34963 2.3224 -3.76156 0.217862 -3.9084 -0.0611247 -0.159319 -0.00682618
90 1 12.8226 24.1983 -2.2833 -3.32555 -1.34099 0.789537 0.189405 -3.8785 -0.328422 0.171902 0.375236
189 1 11.404 22.6532 -0.633077 1.1462 2.87937 3.03823 0.296438 -3.85729 0.421674 0.370273 0.314382
92 1 1.49183 27.0716 -2.1989 -1.55268 0.823337 -0.21304 0.0702194 -3.89176 -0.268888 -0.309065 -0.138637
93 1 2.95679 25.6072 -3.79326 -2.98218 -1.24306 2.03838 0.18144 -3.89928 0.191857 0.215566 -0.167293
94 1 4.31233 27.0701 -2.02784 -2.42482 -0.468398 -1.32983 0.73445 -3.89192 -0.146971 -0.0450941 -0.598228
193 1 2.87926 25.4829 -0.643493 -1.0862 0.475835 1.41936 5.72208 -3.90562 -0.140815 0.477991 -0.0866892
5 1 5.72241 28.2956 -3.72726 2.69086 -0.906142 0.0342517 5.2392 -3.9342 -0.0715266 0.247708 -0.220082
107 1 8.62684 28.3911 -0.527442 1.62718 -2.83475 -3.52836 5.81026 -3.99997 0.209085 0.466847 -0.716945
96 1 7.19496 27.0059 -2.1965 3.8854 -2.09663 -3.2721 0.0402483 -4.00406 -0.395817 0.16999 0.27174
195 1 5.7699 25.6353 -0.627232 -1.7019 -1.17403 1.74296 6.05406 -3.85636 0.270337 -0.247643 0.119586
197 1 8.65402 25.6862 -0.570073 -0.592902 -0.620959 0.00800132 0.330676 -3.99815 -0.498455 -0.137624 0.195802
7 1 8.51249 28.4072 -3.70443 0.305773 -1.36188 3.04787 0.364984 -3.93563 0.17543 -0.250872 -0.176416
191 1 14.1954 25.5315 -0.617245 -0.0885336 -4.4938 -0.48509 0.209796 -3.86635 0.417859 0.1568 -0.570604
98 1 9.85719 27.0277 -2.2444 2.60699 4.64685 0.62246 5.67054 -4.03013 0.714014 -0.0645296 -0.205422
100 1 12.8111 27.1397 -2.18499 0.688756 2.41483 -3.36628 0.112194 -3.91347 -0.133864 -0.354573 -0.460538
199 1 11.3947 25.7747 -0.568368 -1.77748 -0.753815 0.440887 5.50311 -3.86926 0.588905 -0.351095 -0.570422
99 1 11.3966 25.6653 -3.74705 -3.11862 -0.640777 0.494149 0.144688 -3.94864 0.140665 -0.219837 -0.272255
102 1 1.43258 1.58866 1.08553 7.38627 -3.29026 1.48818 0.300654 -4.00073 0.483534 0.342533 0.36323
104 1 4.40471 1.70471 0.988411 -2.62904 -0.431866 -2.50035 0.238723 -3.89728 -0.462076 0.234007 -0.525472
202 1 1.64591 1.56967 4.18012 2.02744 3.5456 -1.59179 4.79947 -4.01343 -0.503385 0.90761 0.24847
203 1 2.94499 0.259696 2.63444 -1.3304 -3.48688 0.0854903 0.131726 -4.02304 0.207435 0.0114991 -0.586493
204 1 4.18458 1.68524 4.26751 -0.935437 1.48785 2.63114 4.74425 -3.96292 1.07544 -0.361002 -0.261738
213 1 2.88677 3.08084 2.59757 -2.28947 -0.845795 -1.07431 0.370347 -3.97378 0.324228 -0.430249 0.165201
106 1 7.15632 1.63052 0.972197 0.736671 -1.16949 0.0239501 0.256841 -4.01923 0.115868 0.559831 0.89542
205 1 5.64874 0.299036 2.48976 2.33469 0.995414 0.291621 4.80568 -3.86594 0.417747 -0.0756907 0.580913
206 1 7.2548 1.68985 4.22606 -1.46106 -1.55409 1.7364 4.97163 -3.91102 -0.300845 -0.254192 -0.215265
207 1 8.58474 0.236208 2.71603 1.31666 3.04051 1.49325 0.161016 -3.92843 0.476207 -0.173053 -0.444565
215 1 5.78167 2.95842 2.77238 -1.49422 -2.50707 3.51511 0.546349 -3.91818 -0.30505 0.0691967 -0.229416
217 1 8.60442 3.0921 2.65936 -1.80041 2.92479 -5.24384 0.123794 -3.99416 -0.353167 0.191259 -0.189349
201 1 14.2143 0.277593 2.71994 -0.76465 1.66164 -3.30675 0.331708 -3.96367 -0.22196 0.105111 -0.29292
211 1 14.1953 3.09372 2.77788 0.131749 -3.47244 0.658656 0.292113 -3.89168 0.189703 -0.216024 -0.213156
108 1 9.98023 1.81548 1.10874 1.78008 -0.0382443 0.481447 5.81716 -3.856 0.209861 -0.971633 -0.160162
110 1 12.7567 1.63776 1.01197 0.143622 0.261967 0.471904 0.166717 -3.84268 0.426719 0.257618 0.21563
219 1 11.4042 3.08595 2.68599 2.96876 -3.6 -0.306264 0.066765 -3.90129 -0.323056 -0.0717838 0.275239
112 1 1.47335 4.44722 1.17531 -2.08488 5.53109 1.88305 0.256539 -3.91256 -0.0142959 0.60339 0.152591
114 1 4.45714 4.53943 1.18863 0.408107 -1.46821 1.68028 5.36127 -3.97839 -0.0506626 -0.579163 -0.415179
122 1 1.5387 7.19477 1.14008 -2.178 2.10286 -1.52883 0.269672 -3.83651 -0.370615 0.304682 -0.0177677
124 1 4.30599 7.3213 1.11577 -1.70609 -0.894295 0.386355 0.161674 -3.91989 -0.231288 0.134189 0.387933
223 1 3.00176 5.86832 2.72831 -2.9209 -3.41332 -1.19244 0.120664 -3.96364 0.0986716 -0.284298 0.438355
116 1 7.08446 4.43511 1.11622 -0.717838 -0.661302 1.69127 5.47438 -3.94393 0.836228 0.524327 -0.0383103
126 1 7.33953 7.39572 1.09368 1.37971 -3.46356 0.697126 5.68489 -3.84216 -0.656484 -0.371342 -0.132554
216 1 7.15048 4.45322 4.18164 0.663868 1.20315 1.59813 0.36436 -4.00582 -0.191605 0.540293 -0.117476
225 1 5.7941 6.05956 2.63714 0.299468 -1.75276 -1.18853 5.75667 -3.9084 -0.273004 -0.0689321 0.0334115
227 1 8.61587 5.8789 2.64418 -0.532809 -0.371899 0.126652 0.142327 -3.93027 0.192699 0.0620273 0.226952
221 1 14.1524 5.86373 2.74337 0.796103 -1.93786 -0.0692733 0.134798 -3.96221 0.0116745 0.391333 0.0332424
118 1 10.0291 4.4796 1.07659 -2.00022 0.251406 -1.34662 5.71025 -4.01184 -0.108244 -0.236256 -0.533543
120 1 12.7727 4.51546 1.00821 -2.93314 -0.0391201 0.674702 0.124404 -3.95907 0.157378 -0.165255 0.210394
128 1 10.0124 7.32217 1.02449 -2.7644 2.28321 3.1472 5.78077 -3.99862 -0.171892 -0.289655 0.0332018
130 1 12.7448 7.26336 1.03081 -1.8326 -3.86476 -3.53257 0.174783 -3.97159 0.570306 0.158054 0.0662449
218 1 9.92391 4.44006 4.302 2.54663 2.02038 1.45237 0.0901477 -3.98105 0.260906 -0.00738233 -0.190053
220 1 12.7806 4.44772 4.29322 -0.879614 -1.25736 1.20844 0.0663459 -3.85437 -0.228327 0.0944349 0.535657
229 1 11.2652 5.91426 2.72175 0.58398 1.74186 -1.1864 5.39657 -3.97966 1.0333 0.162279 -0.178875
230 1 12.8446 7.35538 4.21315 2.31232 0.678649 1.21522 0.283892 -3.93787 -0.615342 -0.398714 0.149321
132 1 1.49806 10.2454 0.988281 0.926583 1.77752 2.20689 0.210761 -3.93934 0.157357 -0.410438 0.510596
134 1 4.33421 10.2257 1.13497 -1.95039 -2.01599 -1.69927 5.56784 -3.90277 0.0716792 -0.338706 -0.0555325
233 1 2.86938 8.7146 2.74614 -0.683116 0.194601 5.31636 0.149719 -3.84098 0.543479 -0.328109 -0.381399
234 1 4.30212 10.2221 4.29979 -0.621179 0.157015 -0.123602 5.63341 -3.91676 0.164491 -0.398873 0.0685159
241 1 0.149986 11.5192 2.63866 -2.41095 0.904273 -0.0212207 0.0966492 -3.981 -0.00635847 -0.0326397 0.240673
243 1 2.87755 11.525 2.58218 -0.234391 0.744033 0.670144 0.267617 -3.95463 0.244959 0.0648724 0.0451884
136 1 7.34978 10.1327 1.11075 0.629619 0.98562 1.20116 5.17705 -4.0053 -0.373051 -0.1387 -0.185374
235 1 5.87066 8.81598 2.60783 0.465343 -1.43871 1.4062 0.405187 -3.939 -0.559444 -0.347798 0.569255
237 1 8.63235 8.75913 2.84667 2.56455 0.935182 0.542097 0.411863 -4.04061 -0.331858 -0.339881 -0.388758
245 1 5.87987 11.5851 2.67707 0.240801 -0.541356 -0.243051 0.426484 -3.93306 -0.661079 -0.300968 0.112076
247 1 8.6244 11.498 2.7941 0.432483 -3.51449 2.45946 0.210537 -4.02323 -0.169777 0.525436 -0.102614
231 1 14.2058 8.74973 2.63756 -0.187028 1.52542 1.17023 0.0885855 -3.97279 0.676781 -0.277254 -0.217132
138 1 9.92992 10.142 1.03892 -1.64946 -2.47072 4.24093 5.44017 -4.02856 0.913638 -0.0697188 0.128827
140 1 12.8378 10.2224 1.04768 -3.06779 0.590986 0.953237 0.204815 -3.98735 -0.679154 -0.442047 0.290146
239 1 11.364 8.67474 2.64546 1.07823 -1.10089 5.00007 0.104646 -3.97105 0.307282 0.201936 -0.15375
240 1 12.788 10.0949 4.13806 0.473313 1.12475 -2.36237 10.4991 -3.88501 0.350628 0.4665 0.940059
249 1 11.3994 11.5636 2.78253 0.00818624 4.09037 -1.73351 0.273502 -3.96679 -0.491603 -0.35331 -0.0553451
142 1 1.52181 13.0509 1.15802 -1.28477 -4.17543 2.9049 0.379618 -3.96036 0.303589 -0.34268 -0.353158
144 1 4.29805 12.8216 0.977149 1.81958 -2.20134 0.0142737 5.064 -3.92154 0.668402 0.428345 0.210185
152 1 1.51339 15.8576 1.13199 -0.669006 2.84052 -0.820189 5.56372 -4.04101 0.465835 -0.792865 -0.342696
154 1 4.25725 15.7179 1.03921 2.46855 -1.35996 -1.82568 0.312411 -3.92474 0.499214 0.333658 0.0237684
242 1 1.53992 12.9165 4.26654 0.280113 3.4737 -1.1283 0.130743 -3.98844 0.066297 -0.029073 0.202935
244 1 4.24982 12.7782 4.2955 2.14938 -0.0921022 -0.749942 5.57036 -3.92375 0.475096 0.664695 0.0686731
251 1 0.128475 14.4623 2.7459 2.68999 -0.1114 0.508103 0.236534 -3.93668 -0.507842 0.11118 -0.0813236
252 1 1.63436 15.7834 4.17125 -3.12021 0.366244 0.726554 4.7895 -3.89457 -0.271734 -0.287862 0.403041
253 1 3.02926 14.3678 2.71845 0.643288 -2.70259 -2.00417 0.370689 -3.93504 -0.220743 -0.300407 0.244679
146 1 7.13468 12.9886 1.05485 1.04428 0.1527 -2.62964 0.134235 -3.82516 0.745322 -0.059834 -0.191662
156 1 7.1141 15.8395 1.08414 -5.45427 -4.00032 2.42238 0.305277 -3.95132 0.4826 -0.0430492 0.0575048
255 1 5.79332 14.3612 2.62828 0.949383 2.2935 -3.25327 6.20358 -3.92231 -0.621059 0.242913 0.608552
256 1 7.19239 15.8423 4.19479 -0.861153 0.781607 -0.146585 0.409996 -3.99364 0.538703 -0.668046 0.34275
257 1 8.60857 14.4287 2.73636 -2.00567 3.54744 2.76289 0.0771454 -3.91865 -0.107051 -0.330914 -0.110992
148 1 10.0789 12.8625 1.16072 2.53119 -0.204599 1.59625 5.40201 -3.90842 -0.336354 0.185791 0.136985
150 1 12.8144 12.9078 1.12389 0.842405 -1.04171 -0.584461 0.166638 -4.00205 0.441291 0.264854 -0.312557
158 1 10.0599 15.8093 1.1422 1.95172 -4.28031 -2.67566 0.272867 -3.87993 0.0134944 0.002676 0.0711488
160 1 12.7974 15.8078 1.03404 2.05154 2.79304 -0.0709358 0.212885 -3.93112 -0.0326384 -0.194459 0.514112
250 1 12.9049 12.9601 4.24398 1.45982 -1.9964 -1.75047 0.288322 -3.9689 -0.0565594 -0.0835023 -0.0184604
259 1 11.5154 14.2983 2.67538 2.36546 0.76793 -0.871017 0.271387 -3.98242 -0.789946 0.693164 -0.175239
162 1 1.61205 18.4318 1.06871 0.103087 0.473685 0.329909 5.29394 -3.93833 -0.358411 0.527546 0.20589
164 1 4.41893 18.6151 0.945381 -0.211573 3.22505 -5.20284 0.373249 -3.94256 -0.226978 -0.536041 -0.139362
262 1 1.64124 18.6991 4.28324 -1.57751 0.894061 -4.43727 5.29506 -3.96666 -0.714675 -0.729243 0.040341
263 1 3.02324 17.1738 2.66095 -2.37006 -0.133771 0.32695 0.27973 -3.99033 0.0149028 -0.0111009 0.479809
271 1 0.239882 19.931 2.56184 -2.9132 -1.24747 -1.34561 0.63161 -3.96064 -0.18865 0.0633872 0.373169
273 1 3.06119 20.0027 2.67833 0.40391 -0.0741893 3.19324 5.67507 -3.93864 -0.406482 0.432028 -0.0729697
166 1 7.16241 18.5363 1.04894 0.698547 0.150344 -2.49931 0.197581 -3.9635 -0.19538 -0.215256 0.075461
265 1 5.71847 17.1429 2.8072 -1.6126 -0.82668 -3.54668 4.8457 -3.9491 -0.225608 -0.0470111 -0.0549347
266 1 7.25348 18.553 4.19613 1.95445 3.37989 -0.145865 5.16495 -3.87274 -0.150495 -0.111881 0.387871
267 1 8.63962 17.1234 2.59762 1.62128 1.24999 -1.44411 0.282953 -3.93266 -0.210944 0.667015 0.574602
275 1 5.66392 19.9514 2.68511 0.0670137 -1.38317 -3.87798 5.28584 -3.94229 0.133805 -0.0156281 0.0157022
277 1 8.52362 20.0544 2.67357 0.898333 -0.0775842 -0.479706 4.91459 -3.96517 0.282627 0.00737145 0.132054
261 1 14.1769 17.1487 2.76083 3.22524 -0.724689 1.23685 0.365826 -3.9887 0.319993 0.332963 -0.00566662
168 1 9.9888 18.5753 1.09506 -3.61858 0.233632 -1.83299 0.230427 -3.90708 0.206042 -0.635483 0.0262175
170 1 12.8038 18.6463 1.20918 0.900172 4.64776 -2.52583 0.359395 -3.98766 0.296195 -0.545022 0.127208
269 1 11.4148 17.1891 2.87484 1.22914 3.37173 -1.05524 0.437289 -3.94684 0.414284 0.188323 -0.839345
270 1 12.909 18.7314 4.28891 -1.75346 -1.91228 -0.862528 5.60122 -3.9028 -0.14405 0.000770782 0.359068
279 1 11.3598 20.0486 2.65002 2.0114 -4.45816 0.994583 0.287594 -3.87974 -0.576755 0.00996085 0.391612
172 1 1.47279 21.4257 1.0984 2.33301 -0.225112 2.95214 0.28956 -3.95927 0.922908 -0.182048 0.278297
174 1 4.32705 21.4567 0.933492 -1.27528 -0.710527 -1.51037 0.296484 -3.95732 0.302868 -0.0508925 0.184482
182 1 1.5749 24.1646 1.04718 -0.784188 -3.79054 -2.16947 0.0659825 -3.96795 -0.266183 0.0779961 0.462558
184 1 4.3073 24.238 1.00127 -0.587332 0.565944 -1.32797 0.148187 -3.96122 0.405776 -0.575162 -0.183304
272 1 1.50093 21.4332 4.2024 -1.3891 0.701157 2.48604 0.401888 -4.01688 -0.0314921 -0.37772 0.723705
281 1 0.183488 22.7914 2.74264 -2.74019 0.616667 0.622568 0.172622 -3.92218 -0.268784 0.524128 0.0141576
283 1 2.92311 22.8102 2.76176 1.18139 2.06881 4.32688 0.196617 -3.88933 0.368262 -0.114171 -0.0492571
176 1 7.06694 21.3141 1.12067 -3.95137 -1.5893 -1.01736 0.403684 -3.98872 -0.0592792 -0.00763596 -0.574114
186 1 7.17879 24.1447 0.947894 2.78581 2.06017 1.88695 0.203687 -3.87923 0.380674 0.832002 0.104505
285 1 5.85589 22.7635 2.53999 1.31531 1.02106 -0.50399 0.585905 -3.88241 -0.868845 0.334809 0.398141
287 1 8.6565 22.7436 2.58931 2.42 3.87829 -0.705154 11.054 -4.03443 -0.445831 0.045552 0.384089
178 1 9.99102 21.4199 1.00634 -1.13098 -1.50552 3.15931 0.264506 -4.01608 0.620212 -0.178823 0.0978617
180 1 12.8404 21.4228 1.14843 -0.471497 0.0061306 0.269058 0.321777 -4.0651 0.229117 0.384688 0.0199543
188 1 10.0407 24.0693 0.892797 -1.30348 -2.27273 0.479064 4.96542 -3.86293 0.0201453 1.20118 0.106641
190 1 12.925 24.1389 1.01735 -1.55903 -2.12372 1.13416 5.74044 -3.84541 -0.57154 0.265533 0.495933
280 1 12.8739 21.3633 4.21748 1.61778 1.13426 1.57654 5.7634 -3.96846 0.0629447 -0.102919 0.19768
289 1 11.3072 22.8471 2.67932 -3.96248 4.07387 -0.259648 5.23098 -3.97239 0.283158 0.134943 0.500932
290 1 12.8777 24.1232 4.27747 1.06046 -1.98762 3.24564 0.242704 -3.97134 -0.220895 0.423083 0.249857
192 1 1.54582 26.9795 1.08234 0.832332 -0.820942 0.130328 5.39273 -3.96313 0.186528 0.0303505 0.164097
194 1 4.33343 27.1078 1.02097 -1.61671 -3.20912 1.28134 0.25649 -3.93293 0.0228824 -0.405652 -0.684854
291 1 0.123486 25.6243 2.80509 -1.91934 -0.395923 -0.219087 0.422872 -3.90692 0.217887 -0.0186589 -0.464212
292 1 1.58125 27.1181 4.18693 0.521729 -0.104332 -0.21211 5.47537 -3.99779 0.108527 -0.285398 -0.104373
293 1 3.0799 25.6086 2.64939 2.80973 1.17343 -0.298043 6.01677 -3.88902 -0.826097 0.159065 0.461907
294 1 4.2495 27.1204 4.2695 -1.17778 2.9951 1.58236 0.257322 -3.93643 0.475012 -0.0296434 -0.479039
196 1 7.3038 27.0489 1.17261 3.37805 -2.98627 4.17109 4.99025 -3.89607 -0.567399 -0.0653754 -0.631166
295 1 5.73558 25.636 2.62706 2.43808 0.681994 -1.51506 5.31954 -3.93996 0.429101 -0.149403 0.231382
296 1 7.17419 27.0665 4.17605 0.309675 6.50899 -1.89168 0.267523 -3.88482 -0.00558867 0.309259 -0.297077
297 1 8.56397 25.5256 2.6768 -0.134748 1.31643 -3.31811 0.364945 -3.91744 0.916468 0.122029 0.295426
209 1 11.3537 28.3011 2.74851 -0.393176 -1.47754 0.78913 6.06628 -3.81275 0.734689 0.674343 -0.709138
198 1 9.95313 27.0869 0.954631 0.689763 -0.698924 -1.31982 5.27611 -3.82659 0.364333 -0.0874615 1.12005
200 1 13.0099 27.0067 1.01231 5.30296 -0.270392 0.651806 5.666 -3.86308 -0.551309 0.256 0.429286
299 1 11.357 25.6421 2.72235 0.613569 6.18239 1.53807 6.40809 -3.81223 0.520255 -0.337368 -0.0981277
301 1 0.190771 0.330155 5.78145 0.5675 -0.168496 -2.46061 5.04572 -4.00048 0.0859249 -0.571856 0.312412
302 1 1.52998 1.64637 7.68116 -1.42736 -3.15682 0.972455 0.328726 -3.95211 0.207874 -0.134077 0.0245522
303 1 2.87995 0.257353 5.94626 0.341516 -0.0404191 -2.60214 0.191385 -4.01424 0.284505 -0.491445 0.151441
304 1 4.29008 1.6221 7.5112 -4.04083 -0.468429 4.02966 0.162136 -3.8852 0.369726 0.732764 0.354803
311 1 0.149724 2.85167 5.93737 -1.74976 0.28104 0.763369 5.33878 -3.86772 -0.345598 1.29914 -0.318107
313 1 2.89377 2.99568 5.81598 0.148637 -0.416692 -0.495992 5.456 -3.87167 0.115936 0.455672 0.279222
305 1 5.63949 0.272746 5.94164 -2.6762 0.601797 -1.53878 5.37511 -3.82658 0.467615 0.426676 -0.634167
306 1 7.16827 1.7968 7.54264 -0.497955 1.38302 -0.554626 5.96811 -3.88023 -0.764453 -0.897525 -0.0174302
307 1 8.54451 0.339894 5.98916 2.06573 -1.47317 -0.377265 0.340778 -3.95914 -0.527631 -0.703739 -0.072309
315 1 5.88369 2.98404 5.85208 0.746495 3.22544 0.384377 5.44015 -3.96387 -1.08752 0.777394 0.091746
317 1 8.5575 3.091 5.85344 0.877774 1.33708 0.284955 0.0797331 -4.08223 -0.320101 -0.227888 0.313947
208 1 9.93587 1.5992 4.32164 -2.11946 3.54369 -4.60115 0.124751 -4.04914 0.53233 0.397566 0.187583
210 1 12.7168 1.62492 4.35204 1.93469 -2.84729 3.21644 0.362682 -3.9195 0.189655 0.14182 -0.0100593
308 1 9.85407 1.73124 7.4963 -3.32365 0.641461 0.348771 0.209684 -3.95003 0.666319 -0.277845 0.115681
309 1 11.427 0.271834 5.98692 2.261 -0.338001 1.59023 0.161607 -3.93175 -0.186448 -0.173002 0.0776717
310 1 12.8338 1.67333 7.51907 -2.12593 2.9352 -1.91821 0.177534 -3.92947 0.0237328 -0.405077 0.253792
319 1 11.2832 3.0542 5.94556 1.40137 -1.12676 -0.599603 0.111446 -3.98509 0.716321 0.129087 -0.463649
212 1 1.5107 4.56417 4.32825 1.71349 1.1107 -0.37813 5.58146 -3.95984 0.376009 -0.654506 -0.0253715
214 1 4.35594 4.34938 4.34768 -3.60792 0.888428 1.10906 5.08418 -3.92069 0.180849 0.52343 -0.597734
222 1 1.54559 7.23945 4.30526 2.60978 -1.28947 -2.65909 5.57392 -3.9748 -0.371894 -0.0548262 0.0875729
224 1 4.45542 7.31972 4.34374 2.28078 -2.16034 3.83898 0.309499 -3.91598 -0.824741 0.201416 -0.635635
312 1 1.51633 4.46751 7.47165 6.58074 -1.87872 -2.48992 0.255635 -3.94874 0.0326515 -0.0838169 -0.218497
314 1 4.38482 4.47065 7.59467 1.38421 -0.500902 1.94911 5.93935 -3.85416 -0.319398 0.0339168 -0.241989
322 1 1.50912 7.24612 7.45688 2.77664 -2.04083 2.3912 0.114388 -3.92668 -0.344584 -0.518827 0.126207
323 1 3.05231 5.91185 5.8671 -1.31866 2.39502 -0.268551 0.268291 -3.93709 -0.244903 -0.277756 -0.0598329
324 1 4.3708 7.29584 7.48647 1.4459 0.563605 -1.51929 0.13299 -3.95724 0.0657058 -0.0301333 -0.351055
226 1 7.22143 7.27669 4.30823 -1.92098 2.73055 -2.00716 0.113216 -3.98431 -0.160871 0.278361 0.172506
316 1 7.10763 4.57462 7.52722 2.31643 -3.52172 -0.258836 0.364366 -3.98468 -0.226153 -1.12759 0.300383
325 1 5.76431 5.8264 5.80544 -2.43851 2.57701 -2.10025 0.273165 -3.95819 -0.172352 -0.045907 0.013365
326 1 7.19795 7.24786 7.43471 -1.71798 -0.00966545 0.572563 0.27531 -4.01325 -0.115897 0.246261 -0.463464
327 1 8.55272 5.78657 6.02073 -1.12912 -0.410511 1.0442 0.564656 -3.93715 -0.0507415 0.0930852 -0.68332
228 1 9.92162 7.27115 4.39276 0.0778168 -0.255412 1.79302 0.271825 -3.95826 0.199038 -0.156984 -0.0609204
321 1 14.1448 5.82456 5.90876 4.06995 0.134137 -0.309495 0.201836 -3.93809 0.507851 0.0984182 -0.273245
318 1 9.98504 4.43593 7.49059 1.75132 -4.65897 3.2673 0.0905766 -3.98591 -0.22498 0.208233 0.42577
320 1 12.7757 4.48205 7.4978 1.89733 -3.11783 2.82706 0.18929 -3.91406 -0.136804 -0.760042 0.0514811
328 1 10.0129 7.28399 7.36519 2.65819 -0.927283 -2.4793 0.544433 -3.93908 0.0350344 0.28155 0.72214
329 1 11.4291 5.87426 5.89046 1.9858 -1.38951 -0.786356 0.0765735 -3.95935 0.236528 0.0302868 -0.341685
330 1 12.8425 7.28945 7.52049 -1.97867 0.420953 -1.07444 0.0973883 -4.01851 -0.269739 0.246231 0.413309
232 1 1.56015 10.1641 4.32287 2.12226 0.0705619 -0.681687 0.223387 -3.99601 -0.300994 -0.314407 -0.238063