ITEM: TIMESTEP
66750
ITEM: NUMBER OF ATOMS
2000
ITEM: BOX BOUNDS pp pp pp
1.0838953229856951e-01 1.4221610467701321e+01
2.1677906459713903e-01 2.8443220935402643e+01
-1.4505568656819894e+00 5.8770556865681549e+01
ITEM: ATOMS id type x y z vx vy vz c_csym c_peratom fx fy fz
2 1 1.62332 1.66863 0.0626643 -0.282889 -3.25185 -0.636516 0.278045 -4.06193 -0.490606 0.245088 -0.232247
4 1 4.35789 1.61575 -0.0104401 0.990702 -5.33602 3.45801 0.229236 -4.09039 -0.0250558 0.303172 0.620953
11 1 0.115605 3.14255 -1.40192 0.617832 -0.194419 3.50607 0.217 -4.01391 -0.0478891 -0.227135 -0.0752181
101 1 0.126621 0.284403 1.53303 -1.57173 1.46596 2.1275 0.152128 -4.07826 -0.0264222 -0.117175 -0.113529
103 1 2.85007 0.270771 1.59341 0.287695 0.367304 -1.8153 0.240819 -3.96328 0.787434 -0.11338 0.262107
111 1 0.168447 3.08626 1.55984 -2.2925 0.592843 0.179022 0.131823 -4.08908 -0.126043 -0.308887 0.0557139
113 1 2.87763 3.13123 1.61605 -1.71434 2.42111 -1.1208 0.331705 -4.03543 -0.401739 0.260934 0.309256
13 1 2.94284 3.10367 -1.43129 -0.0706192 -1.95523 0.774801 0.0730255 -3.98359 0.0202587 0.161353 -0.149312
6 1 7.17995 1.58532 0.0558187 -1.53139 -1.81767 -2.43971 0.227916 -4.05513 -0.222797 0.484013 -0.243712
17 1 8.63608 3.25517 -1.38045 -1.24355 -0.0988133 -0.860341 5.03477 -4.03298 -0.374827 -0.703965 -0.258662
105 1 5.90739 0.22905 1.56131 0.812795 -1.48127 -4.16198 0.294528 -4.0472 -0.495461 -0.325561 0.0213683
115 1 5.79048 3.13764 1.54637 -0.932742 0.818202 0.0439582 0.181491 -4.01675 0.0539296 -0.621794 -0.115363
117 1 8.60233 3.08029 1.62778 0.475293 0.415756 -1.302 0.164243 -4.02097 -0.353199 -0.101663 -1.05322
15 1 5.86915 3.09703 -1.3927 -1.1078 -3.23994 -0.243916 0.293218 -3.9678 -0.162396 0.40831 -0.346191
8 1 9.98472 1.71462 -0.0609666 1.02028 2.64764 -1.65962 0.395309 -4.02024 -0.385353 -0.391886 1.05177
9 1 11.3244 0.287262 -1.3489 -0.628437 1.37052 0.162777 0.397743 -4.01713 0.903613 -0.077536 -0.295365
10 1 12.8557 1.68831 -0.00990332 -0.261261 2.58464 0.684826 0.135628 -3.99708 -0.314679 0.369633 0.115765
109 1 11.3921 0.306018 1.53101 4.17545 -4.26001 3.01885 0.168667 -4.03646 -0.448019 -0.212753 -0.328874
119 1 11.4562 3.11085 1.47624 -0.877516 0.612354 1.13148 0.153861 -4.07222 -0.429614 -0.0888788 -0.161601
12 1 1.52356 4.6359 -0.040839 1.18436 1.40208 1.05812 0.572712 -4.01595 -0.216408 -0.48696 0.215664
14 1 4.34915 4.42365 0.156801 -0.761965 1.11821 -1.53086 0.273099 -4.06926 0.154933 0.180398 -0.43831
22 1 1.54026 7.32431 -0.013221 0.529166 1.27637 -0.648244 0.246223 -3.99667 -0.290909 0.119235 0.617877
23 1 3.01689 5.92797 -1.42268 4.21453 0.286138 -0.65637 0.223395 -3.99899 -0.615628 0.0447627 -0.346886
24 1 4.35552 7.36387 0.0575909 0.718611 1.41969 0.425215 0.107733 -4.00058 -0.110967 0.296822 -0.228847
121 1 0.132435 5.82793 1.55281 -2.35864 3.10392 -0.471262 0.186904 -4.00272 0.478584 0.641263 0.186651
123 1 3.01618 5.86763 1.6489 1.00139 1.8653 -1.24788 0.256398 -4.0786 -0.469547 -0.198754 -0.0989493
16 1 7.14135 4.5226 0.135418 0.603539 0.154603 0.133915 0.155559 -4.02749 0.341967 -0.0372739 -0.295926
25 1 5.70759 5.92495 -1.33158 -0.827089 1.1553 2.35682 0.323358 -4.0994 0.0244784 -0.540153 -0.715409
26 1 7.1412 7.16975 0.00760395 -0.0337704 2.62343 0.778117 5.02156 -3.9203 0.0301877 0.838668 0.285171
125 1 5.74127 5.95799 1.59652 -0.136011 -2.75282 -0.154075 0.138253 -4.15518 0.334268 0.214738 -0.0347225
127 1 8.57446 5.88387 1.4599 -1.51658 -3.67076 0.00771245 0.369747 -4.04926 0.165275 -0.0848938 0.811977
18 1 10.0587 4.47472 0.0590776 2.01504 1.15568 0.108705 0.212845 -4.02818 0.188683 0.262435 0.403526
20 1 12.7939 4.54238 0.0251366 -0.022531 3.00342 -1.17168 0.0607026 -4.08403 -0.000970877 0.3109 0.197221
28 1 10.1169 7.35391 0.149083 1.08986 -1.21663 1.80841 0.405825 -4.00073 -0.832147 -0.49196 0.150179
29 1 11.4127 5.98723 -1.43254 1.3822 1.47477 -0.555896 0.0537945 -4.07967 -0.431398 -0.686333 -0.0748061
30 1 12.8531 7.28188 0.120423 0.362699 -0.519128 0.486825 0.13596 -4.09177 0.0408159 0.279845 -0.0175921
129 1 11.3642 5.90889 1.60373 -0.995542 1.01394 2.2528 0.109646 -4.07626 0.054133 0.00510235 0.0135197
32 1 1.48279 10.1923 -0.010678 2.66336 -1.18469 0.933482 0.226515 -4.11305 0.401644 -0.195784 0.155955
34 1 4.32744 10.195 -0.00975104 -3.42019 -1.92301 1.41173 0.190344 -4.04169 -0.223201 -0.661771 0.404011
43 1 2.92107 11.628 -1.42789 2.17426 0.782241 3.50485 0.116521 -4.07893 -0.244458 -0.304463 -0.0557689
133 1 2.87707 8.77788 1.58654 -1.44944 0.975575 0.710255 0.0908702 -4.01461 0.100561 -0.0849297 -0.199751
141 1 0.146359 11.6297 1.47094 -2.20193 -7.04944 -1.51669 0.313196 -4.09008 0.38777 0.202925 0.688134
143 1 2.92416 11.521 1.56268 -0.572232 1.1909 1.77002 0.162547 -4.09748 -0.551414 -0.0581158 -0.104579
36 1 7.17897 10.1662 0.10539 0.10168 3.47717 0.174941 0.165781 -3.95954 0.21653 -0.10239 0.253412
47 1 8.63625 11.4798 -1.34615 -1.46078 2.66256 0.234251 0.2835 -4.04009 -0.192961 0.127603 -0.38316
135 1 5.71447 8.72482 1.66366 -0.880733 0.590278 -0.109653 0.287435 -4.03366 0.34467 0.25305 -0.320521
137 1 8.61908 8.74613 1.49716 -4.19951 1.4167 -2.48788 0.36064 -4.07082 0.00747029 0.103228 0.0320102
145 1 5.78797 11.4174 1.5653 0.913579 -3.10787 0.676852 0.314417 -4.02492 -0.0554553 0.655343 0.0786484
147 1 8.63173 11.5707 1.66928 -2.52053 -2.66134 -2.016 0.188825 -4.05136 -0.251777 0.622068 -1.05001
37 1 8.64539 8.6808 -1.31594 -0.410704 1.96136 0.795798 0.364286 -4.10134 -0.720436 0.426059 -0.398321
41 1 14.1834 11.5242 -1.35012 -1.35835 -5.95404 3.83557 0.243558 -4.03925 -0.218726 0.472691 -0.0626623
131 1 14.189 8.78043 1.68482 -1.59748 2.05417 3.03081 0.397532 -3.97625 0.484067 -0.183312 -0.537825
38 1 10.1092 10.2499 0.174704 0.647054 3.02786 -2.05404 0.494497 -4.04959 -0.430164 -0.513277 0.477558
39 1 11.3428 8.78317 -1.39747 2.80774 -0.622395 -1.00191 0.223546 -4.05615 0.870603 -0.270844 0.194903
40 1 12.8549 10.1114 0.192428 -1.75728 -0.634733 -0.267602 0.242435 -4.06087 -0.035583 -0.364093 -0.241069
139 1 11.4119 8.69776 1.6507 -0.425376 2.4171 -0.0430739 0.109045 -4.07477 0.28676 0.599159 -0.343476
149 1 11.4267 11.5446 1.6516 -0.904464 -0.906018 0.248794 0.175711 -4.05007 0.0508468 0.0881143 -0.0514985
49 1 11.351 11.4979 -1.36846 -3.94296 -1.72452 -3.57845 0.14395 -4.01167 0.192933 0.322893 -0.299225
42 1 1.60077 12.9976 -0.0274412 -0.841826 -0.173751 0.753914 0.425014 -4.04815 -0.605731 -0.0780727 -0.00314447
44 1 4.30049 12.9516 -0.0428745 -1.17519 0.372824 -0.13007 0.109194 -4.11681 0.598356 -0.233809 0.314059
52 1 1.58776 15.7356 0.205828 -0.585983 1.26946 1.71295 0.678088 -3.95229 -0.650909 -0.240494 -0.505924
54 1 4.38463 15.6552 0.0541962 0.269637 0.959657 1.9614 0.270734 -4.06344 -0.528376 0.201462 -0.0643872
153 1 2.9946 14.2978 1.57602 -3.03426 -0.361765 3.65674 0.16546 -3.98554 -0.573262 -0.203998 0.0802896
46 1 7.13899 12.8477 0.0291984 -0.042375 -0.703018 -2.37022 0.224175 -4.00787 -0.283146 0.141665 0.491276
56 1 7.08452 15.7726 -0.0261853 0.19616 0.505449 -1.21975 0.250975 -4.06416 0.327329 -0.208872 0.272016
155 1 5.76502 14.3443 1.51818 -0.699273 2.50818 -2.71856 0.103321 -4.05356 0.264219 -0.17021 0.16915
157 1 8.53251 14.4644 1.60362 1.77519 1.9958 -4.01974 5.04938 -4.06477 -0.109868 -0.356197 0.39795
57 1 8.49816 14.3386 -1.30767 5.27468 2.46447 0.151665 0.496923 -3.95795 0.0192182 0.186936 -0.602303
51 1 14.0057 14.3518 -1.45013 5.08997 3.62125 -2.07853 4.75757 -3.96456 1.2152 -0.493465 -0.161079
151 1 14.2009 14.4155 1.58455 -4.71089 2.01634 -0.85659 0.122149 -3.97391 0.144862 -0.288752 -0.0949951
48 1 9.93985 13.0563 0.0807055 2.86016 2.34417 0.701272 0.27045 -4.04182 0.405707 -0.486764 0.230069
50 1 12.7181 12.9904 0.0779594 0.559624 -1.36974 -0.820506 0.177658 -4.04792 -0.0238046 0.00804455 -0.179964
58 1 9.99316 15.7186 0.0623724 -3.3381 -1.51398 5.38263 0.171054 -4.0607 -0.0409841 0.672244 0.0320088
60 1 12.7967 15.7437 0.0680983 1.53771 1.90327 -4.70531 0.111794 -4.05256 -0.528638 -0.0403136 0.503569
159 1 11.3491 14.3264 1.63542 -0.265735 -1.65506 -3.98071 0.15179 -4.04772 0.0249084 0.53437 -0.220953
62 1 1.43944 18.5161 0.104181 0.272627 0.831543 -0.200207 0.115996 -4.00638 -0.0124621 0.296669 -0.431438
64 1 4.38586 18.6552 0.108413 1.24428 1.0664 2.86252 5.14658 -4.00145 -0.492604 -0.55996 0.0930782
163 1 2.94245 17.1558 1.46958 0.341627 2.40032 0.506019 0.390326 -4.01471 0.68665 0.307489 0.07386
171 1 0.141802 19.9783 1.67318 -0.0590841 -1.37942 4.27312 0.169697 -4.10459 -0.463976 -0.0921933 -0.215305
173 1 2.89555 19.9823 1.55373 0.785649 -1.23368 2.3689 0.145906 -4.08605 -0.415 -0.321674 0.497342
66 1 7.24355 18.6165 0.107625 2.75597 -4.35103 0.905848 5.40712 -4.12855 -0.241623 0.299358 0.0278213
67 1 8.57677 17.1461 -1.42611 -4.30079 -3.56988 1.31798 0.0495516 -4.12402 -0.192796 -0.0131747 0.312015
165 1 5.78304 17.093 1.50904 1.97311 1.99329 -0.167527 0.23901 -4.02294 -0.451338 0.2265 0.351416
167 1 8.56005 17.078 1.45523 1.63712 1.01306 -0.622391 4.63914 -4.06839 0.0643779 -0.187813 0.975873
175 1 5.70632 20.007 1.57989 -3.42076 -2.85137 2.01629 0.13345 -4.03162 0.262644 -0.163544 -0.271159
177 1 8.58858 20.043 1.78718 -1.05917 0.80188 -0.731301 0.971884 -3.98869 -0.347205 -0.287788 -1.10688
75 1 5.71713 19.9361 -1.44104 -4.53949 -0.9021 2.29786 0.128766 -4.04251 -0.199217 0.13723 -0.656891
65 1 5.67248 17.193 -1.40259 -1.31158 -3.63153 -0.620776 0.33103 -4.08341 0.163276 0.173288 -0.0175848
161 1 14.1852 17.2046 1.67846 -8.06951 -0.86164 0.0732044 0.213507 -4.10592 -0.244362 0.272334 -0.507686
68 1 9.83757 18.5862 0.134202 1.01621 0.95189 3.77626 5.21104 -4.08776 0.745066 0.239852 0.0906244
70 1 12.7582 18.5098 0.0934007 -2.75978 -0.241021 0.901339 0.155922 -3.97283 -0.0426769 0.710938 -0.235063
169 1 11.4357 17.1907 1.56926 -0.050047 0.778513 1.36961 0.109757 -4.03507 -0.339398 0.246425 0.250752
179 1 11.4548 19.9395 1.65539 0.478562 4.61523 -0.247094 0.246847 -4.06665 0.0355798 0.0181322 -0.485306
69 1 11.3235 17.1806 -1.34393 2.51938 -0.439877 2.89062 0.21309 -4.04359 0.0733886 -0.0056248 -0.262187
71 1 14.189 20.001 -1.33721 -3.02828 1.71166 0.793185 0.299686 -3.92673 -0.249922 -0.414319 0.0495409
61 1 14.2026 17.0274 -1.37785 -2.79754 0.110739 5.17862 0.292326 -3.99446 -0.157007 0.302649 0.371592
72 1 1.54936 21.3951 0.0100512 2.3338 -3.4761 -2.56089 0.173991 -4.10949 -0.377139 0.102771 0.0222999
74 1 4.24289 21.3195 0.140635 -0.775897 2.76848 -0.309503 0.36153 -4.15631 0.313398 0.275341 -0.119892
82 1 1.5098 24.075 -0.0629509 -0.197856 1.54937 -4.05427 0.289275 -4.08937 -0.155734 0.379035 -0.0707393
84 1 4.24694 24.1216 0.0845441 1.75243 2.83472 -4.12876 0.39137 -3.99636 0.527082 0.364395 0.0257234
181 1 0.128659 22.763 1.51745 -3.03311 -1.67311 -0.629939 0.0466971 -4.06866 -0.120461 -0.143417 -0.258826
183 1 2.89382 22.7594 1.47478 0.572942 -1.11899 -0.365379 0.156415 -4.09776 0.0830423 0.456903 0.411063
76 1 7.14056 21.2635 0.0581867 -0.691281 0.193514 1.05787 5.20383 -3.95541 0.0351115 1.06279 0.25584
86 1 7.25436 24.2668 0.0608269 -2.43118 3.29649 -1.15762 5.50893 -3.93807 0.158563 -0.230751 -0.235018
185 1 5.72509 22.8979 1.47987 3.67767 -2.14848 -3.35625 0.467477 -4.05989 0.217677 -1.0001 -0.0506437
187 1 8.47118 22.692 1.65203 -0.732136 -0.532565 -1.73565 0.579341 -4.04994 0.210631 0.0516414 -0.631975
78 1 9.92402 21.3232 0.00243061 -2.14879 -1.2859 1.20999 0.218063 -4.0617 0.151245 0.39207 0.564664
80 1 12.7264 21.3466 0.0777328 -2.02506 0.894117 1.33119 0.0638498 -4.00874 0.967965 -0.0698616 -0.506483
88 1 9.99398 24.1702 0.101776 -1.34963 2.3224 -3.76156 0.199386 -4.06808 -0.625062 0.347237 0.317434
90 1 12.8226 24.1983 -0.0308019 -3.32555 -1.34099 0.789537 0.178856 -4.0139 -0.7519 -0.231958 0.644285
189 1 11.404 22.6532 1.4993 1.1462 2.87937 3.03823 0.28568 -3.96957 0.319218 0.413512 -0.0939967
92 1 1.49183 27.0716 0.047458 -1.55268 0.823337 -0.21304 0.0686464 -4.02386 -0.117113 -0.360613 0.528101
93 1 2.95679 25.6072 -1.43084 -2.98218 -1.24306 2.03838 0.166611 -4.05143 -0.0696184 -0.0238407 -0.504604
94 1 4.31233 27.0701 0.206061 -2.42482 -0.468398 -1.32983 0.660224 -3.98549 -0.270595 0.264196 -0.422413
193 1 2.87926 25.4829 1.48964 -1.0862 0.475835 1.41936 0.408327 -3.99322 -0.10353 0.383804 0.255476
5 1 5.72241 28.2956 -1.36965 2.69086 -0.906142 0.0342517 0.566481 -4.03644 0.138058 0.202261 -0.519236
107 1 8.62684 28.3911 1.59724 1.62718 -2.83475 -3.52836 0.293655 -4.09621 -0.179452 0.800794 -0.395891
96 1 7.19496 27.0059 0.0496838 3.8854 -2.09663 -3.2721 0.0376638 -4.08555 -0.00433847 -0.216346 0.631079
195 1 5.7699 25.6353 1.50472 -1.7019 -1.17403 1.74296 0.128962 -4.01256 0.0762279 -0.109923 0.258854
197 1 8.65402 25.6862 1.55771 -0.592902 -0.620959 0.00800132 0.318193 -4.08529 -0.367824 -0.300417 0.516918
7 1 8.51249 28.4072 -1.34848 0.305773 -1.36188 3.04787 0.331976 -4.02312 -0.0328895 0.237594 -0.703453
191 1 14.1954 25.5315 1.51398 -0.0885336 -4.4938 -0.48509 0.207223 -3.96506 0.408433 0.3162 -0.52213
98 1 9.85719 27.0277 0.00527085 2.60699 4.64685 0.62246 0.393567 -4.12913 0.60913 -0.233052 -0.300583
100 1 12.8111 27.1397 0.0603526 0.688756 2.41483 -3.36628 0.110105 -4.03361 0.264625 -0.279119 -0.171676
199 1 11.3947 25.7747 1.55929 -1.77748 -0.753815 0.440887 0.580572 -3.98803 0.631018 -0.598265 -0.0575427
99 1 11.3966 25.6653 -1.388 -3.11862 -0.640777 0.494149 0.13813 -4.05987 -0.236142 0.0743916 -0.128892
102 1 1.43258 1.58866 3.0928 7.38627 -3.29026 1.48818 0.294023 -4.08013 0.455501 -0.116046 0.357083
104 1 4.40471 1.70471 3.00275 -2.62904 -0.431866 -2.50035 0.227728 -4.04706 -0.797468 -0.106579 -0.644683
202 1 1.64591 1.56967 5.96212 2.02744 3.5456 -1.59179 4.51213 -4.05866 -0.803063 1.10138 -0.0800919
203 1 2.94499 0.259696 4.52895 -1.3304 -3.48688 0.0854903 0.127893 -4.09209 0.411012 -0.0918775 -0.427564
204 1 4.18458 1.68524 6.04314 -0.935437 1.48785 2.63114 4.42472 -4.0456 1.08654 -0.564393 -0.138252
213 1 2.88677 3.08084 4.49477 -2.28947 -0.845795 -1.07431 0.34749 -4.08441 -0.145126 -0.160978 -0.147231
106 1 7.15632 1.63052 2.98771 0.736671 -1.16949 0.0239501 0.235671 -4.1161 0.462649 0.645006 1.02583
205 1 5.64874 0.299036 4.3948 2.33469 0.995414 0.291621 0.561494 -3.97358 0.571122 -0.739937 1.41963
206 1 7.2548 1.68985 6.00472 -1.46106 -1.55409 1.7364 0.353448 -4.01117 -0.660552 -0.609944 -0.408266
207 1 8.58474 0.236208 4.60461 1.31666 3.04051 1.49325 0.146961 -4.02329 0.476419 0.362098 -0.982361
215 1 5.78167 2.95842 4.65686 -1.49422 -2.50707 3.51511 0.513544 -4.02941 -0.158334 0.21324 -0.556355
217 1 8.60442 3.0921 4.55206 -1.80041 2.92479 -5.24384 0.121375 -4.06912 -0.453417 -0.254592 -0.0671207
201 1 14.2143 0.277593 4.60823 -0.76465 1.66164 -3.30675 0.314956 -4.07345 -0.00261555 0.293421 0.0683159
211 1 14.1953 3.09372 4.66195 0.131749 -3.47244 0.658656 0.262151 -4.03279 -0.0629043 -0.30944 -0.255933
108 1 9.98023 1.81548 3.11432 1.78008 -0.0382443 0.481447 5.4596 -3.97443 0.388677 -1.32933 -0.19304
110 1 12.7567 1.63776 3.0246 0.143622 0.261967 0.471904 0.159092 -3.95823 0.414491 0.277211 0.702707
208 1 9.93587 1.5992 6.09334 -2.11946 3.54369 -4.60115 0.124321 -4.14853 0.179718 0.365448 -0.26153
210 1 12.7168 1.62492 6.12153 1.93469 -2.84729 3.21644 0.354054 -4.01715 -0.00746063 -0.333907 -0.574665
219 1 11.4042 3.08595 4.57676 2.96876 -3.6 -0.306264 0.0654677 -4.00724 0.104399 -0.353825 -0.0730448
112 1 1.47335 4.44722 3.17604 -2.08488 5.53109 1.88305 0.234226 -4.00487 0.193571 0.484365 -0.214206
114 1 4.45714 4.53943 3.18839 0.408107 -1.46821 1.68028 5.03762 -4.07764 0.0243798 -0.355821 -0.191168
122 1 1.5387 7.19477 3.14338 -2.178 2.10286 -1.52883 0.265323 -3.95977 -0.332148 0.0664979 -0.376581
124 1 4.30599 7.3213 3.12084 -1.70609 -0.894295 0.386355 0.157639 -3.97889 0.278871 0.231469 0.135251
212 1 1.5107 4.56417 6.09947 1.71349 1.1107 -0.37813 0.379678 -4.07524 -0.0741833 -0.611873 -0.111929
214 1 4.35594 4.34938 6.11748 -3.60792 0.888428 1.10906 4.80366 -4.054 -0.0138943 0.781964 -0.773833
222 1 1.54559 7.23945 6.07815 2.60978 -1.28947 -2.65909 0.156502 -4.08699 -0.0647751 -0.0312063 -0.0844629
223 1 3.00176 5.86832 4.61599 -2.9209 -3.41332 -1.19244 0.119764 -4.08019 -0.196814 -0.116354 -0.086943
224 1 4.45542 7.31972 6.11382 2.28078 -2.16034 3.83898 0.295555 -4.02601 -0.506231 0.603285 -0.279332
116 1 7.08446 4.43511 3.12126 -0.717838 -0.661302 1.69127 5.13573 -4.07337 0.805689 0.495077 0.113001
126 1 7.33953 7.39572 3.10036 1.37971 -3.46356 0.697126 0.489994 -3.96383 -0.57805 -0.502872 -0.159847
216 1 7.15048 4.45322 5.96353 0.663868 1.20315 1.59813 0.332241 -4.11124 0.0612059 0.65923 0.316818
225 1 5.7941 6.05956 4.53146 0.299468 -1.75276 -1.18853 0.61924 -4.02403 -0.165115 -0.196466 0.0859236
226 1 7.22143 7.27669 6.08091 -1.92098 2.73055 -2.00716 0.11053 -4.11032 0.414963 0.0864203 -0.0264165
227 1 8.61587 5.8789 4.53799 -0.532809 -0.371899 0.126652 0.131628 -4.02757 0.012472 -0.231992 -0.115133
221 1 14.1524 5.86373 4.62996 0.796103 -1.93786 -0.0692733 0.126545 -4.05591 -0.172915 0.454745 -0.356919
118 1 10.0291 4.4796 3.08451 -2.00022 0.251406 -1.34662 0.101271 -4.10617 -0.326755 -0.106654 -0.454419
120 1 12.7727 4.51546 3.02111 -2.93314 -0.0391201 0.674702 0.111688 -4.07828 -0.0290922 0.0745175 0.605355
128 1 10.0124 7.32217 3.0362 -2.7644 2.28321 3.1472 0.126977 -4.0884 -0.47744 0.00527228 0.0531982
130 1 12.7448 7.26336 3.04206 -1.8326 -3.86476 -3.53257 0.1608 -4.08977 0.780469 0.00330362 0.174229
218 1 9.92391 4.44006 6.07513 2.54663 2.02038 1.45237 0.0881105 -4.09636 0.0421786 -0.141362 -0.0852919
220 1 12.7806 4.44772 6.06699 -0.879614 -1.25736 1.20844 0.0631812 -3.9728 0.128068 -0.135167 0.120002
228 1 9.92162 7.27115 6.15928 0.0778168 -0.255412 1.79302 0.25702 -4.07238 0.0765711 -0.0251093 0.274317
229 1 11.2652 5.91426 4.60991 0.58398 1.74186 -1.1864 0.299739 -4.07482 1.23098 -0.190662 -0.1257
230 1 12.8446 7.35538 5.99275 2.31232 0.678649 1.21522 0.274495 -4.04012 -0.301571 -0.566248 0.381455
132 1 1.49806 10.2454 3.00263 0.926583 1.77752 2.20689 0.201578 -4.02126 -0.138503 -0.249839 0.405176
134 1 4.33421 10.2257 3.13864 -1.95039 -2.01599 -1.69927 0.276393 -4.0073 0.301352 -0.362 0.103324
232 1 1.56015 10.1641 6.09448 2.12226 0.0705619 -0.681687 0.209717 -4.08757 -0.223583 0.102699 -0.492202
233 1 2.86938 8.7146 4.63253 -0.683116 0.194601 5.31636 0.144946 -4.00287 0.532091 -0.140404 -0.338212
234 1 4.30212 10.2221 6.07308 -0.621179 0.157015 -0.123602 5.29525 -4.05614 0.639148 -0.462816 -0.0526165
241 1 0.149986 11.5192 4.53287 -2.41095 0.904273 -0.0212207 0.092096 -4.05984 0.183776 -0.223228 -0.186928
243 1 2.87755 11.525 4.4805 -0.234391 0.744033 0.670144 0.243062 -4.03085 -0.233926 -0.241092 0.367856
136 1 7.34978 10.1327 3.11618 0.629619 0.98562 1.20116 4.88641 -4.08372 -0.471228 0.521052 -0.220526
235 1 5.87066 8.81598 4.50428 0.465343 -1.43871 1.4062 0.378098 -4.05733 -0.354773 -0.481263 0.190531
236 1 7.13391 10.1574 6.10049 2.36863 -0.429749 -0.449581 0.259681 -4.10897 0.033541 0.394965 0.0932903
237 1 8.63235 8.75913 4.72574 2.56455 0.935182 0.542097 0.363518 -4.11894 -0.286697 -0.212544 -0.691861
245 1 5.87987 11.5851 4.56848 0.240801 -0.541356 -0.243051 0.423596 -4.04543 -0.502604 -0.0181037 -0.0900546
247 1 8.6244 11.498 4.67699 0.432483 -3.51449 2.45946 0.1951 -4.11485 0.0873099 0.375858 0.0574597
231 1 14.2058 8.74973 4.53185 -0.187028 1.52542 1.17023 0.0861069 -4.0996 0.821304 -0.325417 -0.334762
138 1 9.92992 10.142 3.04958 -1.64946 -2.47072 4.24093 5.12782 -4.13234 0.88489 -0.310559 0.512665
140 1 12.8378 10.2224 3.0577 -3.06779 0.590986 0.953237 0.192429 -4.10783 -0.229641 -0.33438 0.469197
238 1 10.0462 10.0877 6.0998 4.00462 1.03455 -0.403308 0.14081 -4.01375 0.328389 0.444979 0.252889
239 1 11.364 8.67474 4.53918 1.07823 -1.10089 5.00007 0.0983278 -4.08744 0.331087 0.219735 -0.0512734
240 1 12.788 10.0949 5.92312 0.473313 1.12475 -2.36237 0.374256 -3.97628 0.140436 0.507608 1.02438
249 1 11.3994 11.5636 4.66627 0.00818624 4.09037 -1.73351 0.246652 -4.06891 -0.298863 0.0824807 -0.420861
142 1 1.52181 13.0509 3.16001 -1.28477 -4.17543 2.9049 0.349611 -4.09953 0.201664 -0.0522925 -0.368649
144 1 4.29805 12.8216 2.99231 1.81958 -2.20134 0.0142737 4.79088 -4.03721 0.718136 0.810459 0.364074
152 1 1.51339 15.8576 3.13588 -0.669006 2.84052 -0.820189 5.21875 -4.14268 0.747694 -0.490286 -0.222386
154 1 4.25725 15.7179 3.04985 2.46855 -1.35996 -1.82568 0.305909 -4.039 0.460331 0.560672 -0.205182
242 1 1.53992 12.9165 6.04224 0.280113 3.4737 -1.1283 0.119424 -4.11638 -0.0352509 -0.0746188 0.0635612
244 1 4.24982 12.7782 6.0691 2.14938 -0.0921022 -0.749942 5.20883 -4.06211 0.0444235 0.647988 -0.0598496
251 1 0.128475 14.4623 4.63231 2.68999 -0.1114 0.508103 0.224094 -4.03953 -0.0461563 -0.206679 -0.319219
252 1 1.63436 15.7834 5.9539 -3.12021 0.366244 0.726554 0.466947 -3.99721 0.0245503 -0.413611 0.476734
253 1 3.02926 14.3678 4.60685 0.643288 -2.70259 -2.00417 0.354616 -4.01434 -0.0127691 0.0215153 0.0863318
254 1 4.32401 15.7314 6.1636 -3.29084 -1.84392 -1.68306 0.277267 -4.0176 -0.125943 0.413125 -0.544446
146 1 7.13468 12.9886 3.06435 1.04428 0.1527 -2.62964 0.131952 -3.91516 0.415747 -0.540408 0.319756
156 1 7.1141 15.8395 3.09151 -5.45427 -4.00032 2.42238 0.291352 -4.03827 0.205194 0.0925751 0.076031
246 1 7.17912 12.9922 6.11413 0.991656 -1.68864 -0.448699 0.137545 -4.00854 0.453576 -0.0756142 0.249891
255 1 5.79332 14.3612 4.52325 0.949383 2.2935 -3.25327 0.1783 -4.071 -0.64982 -0.0725889 0.631104
256 1 7.19239 15.8423 5.97572 -0.861153 0.781607 -0.146585 0.376348 -4.05304 0.398939 -0.497325 -0.0228839
257 1 8.60857 14.4287 4.62345 -2.00567 3.54744 2.76289 0.073288 -4.04594 -0.150956 -0.394553 -0.682467
148 1 10.0789 12.8625 3.16252 2.53119 -0.204599 1.59625 0.297578 -4.01297 -0.419672 0.512955 0.0582513
150 1 12.8144 12.9078 3.12836 0.842405 -1.04171 -0.584461 0.15742 -4.11215 0.682939 0.275863 0.00470703
158 1 10.0599 15.8093 3.14534 1.95172 -4.28031 -2.67566 0.254647 -4.0178 -0.0184376 -0.366286 -0.138764
160 1 12.7974 15.8078 3.04505 2.05154 2.79304 -0.0709358 0.191042 -4.0546 -0.0599549 -0.10949 0.36355
248 1 10.001 13.0598 6.11914 1.15591 3.93167 -3.97146 0.327395 -4.02457 0.447928 0.239073 -0.287548
250 1 12.9049 12.9601 6.02133 1.45982 -1.9964 -1.75047 0.260552 -4.07546 -0.187346 -0.0843206 0.483176
258 1 10.0849 15.781 6.08079 3.15439 -2.57917 -3.22034 5.33559 -4.10469 -0.235589 -0.550249 0.296038
259 1 11.5154 14.2983 4.56691 2.36546 0.76793 -0.871017 0.267052 -4.07004 -0.558657 0.673568 -0.0214772
260 1 12.7221 15.7462 6.10873 1.07372 0.97037 -2.70378 0.529613 -3.99499 0.516939 0.167045 0.00614014
162 1 1.61205 18.4318 3.0772 0.103087 0.473685 0.329909 4.93449 -4.05325 -0.10417 0.316543 0.0423732
164 1 4.41893 18.6151 2.96285 -0.211573 3.22505 -5.20284 0.34363 -4.03968 -0.170641 -0.946868 0.333654
262 1 1.64124 18.6991 6.05774 -1.57751 0.894061 -4.43727 4.94747 -4.08347 -0.854987 -0.700968 0.122298
263 1 3.02324 17.1738 4.55354 -2.37006 -0.133771 0.32695 0.262167 -4.07902 -0.113264 0.220127 0.611099
264 1 4.25569 18.5351 6.20254 2.99979 1.41468 -0.253245 0.483448 -4.04581 0.685587 0.431111 -0.426543
271 1 0.239882 19.931 4.46164 -2.9132 -1.24747 -1.34561 0.593217 -4.05271 -0.18223 -0.0639122 0.131881
273 1 3.06119 20.0027 4.56965 0.40391 -0.0741893 3.19324 5.33283 -4.06817 -0.197094 0.55831 -0.323628
166 1 7.16241 18.5363 3.05887 0.698547 0.150344 -2.49931 0.174766 -4.11794 0.172696 -0.169211 -0.0915181
265 1 5.71847 17.1429 4.68914 -1.6126 -0.82668 -3.54668 0.428927 -4.07025 -0.202628 0.200026 -0.534203
266 1 7.25348 18.553 5.97696 1.95445 3.37989 -0.145865 0.544552 -3.99019 -0.42097 -0.0334911 0.0273884
267 1 8.63962 17.1234 4.49482 1.62128 1.24999 -1.44411 0.262454 -4.02472 -0.0924855 0.516154 0.57449
275 1 5.66392 19.9514 4.57594 0.0670137 -1.38317 -3.87798 0.300833 -4.06207 0.535769 0.324541 0.357131
277 1 8.52362 20.0544 4.56523 0.898333 -0.0775842 -0.479706 0.253976 -4.09447 0.465829 0.1085 0.371425
261 1 14.1769 17.1487 4.64614 3.22524 -0.724689 1.23685 0.353901 -4.09571 0.308711 0.123304 0.253849
168 1 9.9888 18.5753 3.10164 -3.61858 0.233632 -1.83299 0.203966 -4.02769 -0.377517 -0.636431 0.148101
170 1 12.8038 18.6463 3.20744 0.900172 4.64776 -2.52583 0.327143 -4.07256 -0.263371 -0.644799 -0.272216
268 1 9.90461 18.5053 6.1771 4.57801 -0.241298 0.328247 4.51713 -4.01572 0.542854 0.530228 -0.431793
269 1 11.4148 17.1891 4.75186 1.22914 3.37173 -1.05524 0.388495 -4.03659 0.327131 0.429532 -0.893004
270 1 12.909 18.7314 6.06299 -1.75346 -1.91228 -0.862528 0.531271 -4.03749 -0.721975 -0.127925 0.373152
279 1 11.3598 20.0486 4.54341 2.0114 -4.45816 0.994583 0.262926 -4.01231 -0.664892 0.123065 0.538918
172 1 1.47279 21.4257 3.10473 2.33301 -0.225112 2.95214 0.272836 -4.06544 0.933199 -0.0459011 0.160504
174 1 4.32705 21.4567 2.95183 -1.27528 -0.710527 -1.51037 0.271067 -4.07065 -0.0934892 -0.217298 -0.0125034
182 1 1.5749 24.1646 3.05724 -0.784188 -3.79054 -2.16947 0.0647789 -4.10023 -0.786902 0.45134 0.461293
184 1 4.3073 24.238 3.01467 -0.587332 0.565944 -1.32797 0.143986 -4.05439 0.457392 -0.405643 -0.259525
272 1 1.50093 21.4332 5.98278 -1.3891 0.701157 2.48604 0.367893 -4.10839 0.0892613 -0.3743 0.755729
274 1 4.4257 21.4489 6.14405 2.59471 -0.91757 -0.537123 0.263036 -4.00648 0.270629 -0.258485 -0.844258
281 1 0.183488 22.7914 4.62928 -2.74019 0.616667 0.622568 0.153903 -3.99124 -0.428351 0.44076 -0.560251
282 1 1.52472 24.1909 6.15195 -1.23117 0.365724 -0.651941 0.161232 -4.0683 0.824778 0.199848 -0.428614
283 1 2.92311 22.8102 4.64701 1.18139 2.06881 4.32688 0.174165 -4.00835 0.766452 -0.222147 0.106224
284 1 4.42474 24.2671 6.11961 -2.88227 1.45219 3.65201 0.165184 -4.00091 0.333297 -0.374326 -0.495446
176 1 7.06694 21.3141 3.12538 -3.95137 -1.5893 -1.01736 0.391107 -4.04954 0.0570742 -0.134127 -0.715267
186 1 7.17879 24.1447 2.96518 2.78581 2.06017 1.88695 0.19034 -3.97347 -0.0243435 0.618652 0.188939
276 1 7.10716 21.4372 6.13314 2.60993 -1.18025 -2.38511 0.241905 -4.03196 -0.0955868 0.00220235 -0.411072
285 1 5.85589 22.7635 4.44138 1.31531 1.02106 -0.50399 0.539219 -3.99768 -0.931645 0.662687 1.17494
286 1 7.16944 24.2408 6.1136 1.08031 -1.08147 0.839848 0.280508 -4.02285 0.00261688 -0.740656 -0.402496
287 1 8.6565 22.7436 4.48711 2.42 3.87829 -0.705154 4.77488 -4.17674 -0.261553 0.635893 0.22
178 1 9.99102 21.4199 3.01937 -1.13098 -1.50552 3.15931 0.242029 -4.06957 0.742887 -0.0944538 -0.106408
180 1 12.8404 21.4228 3.15112 -0.471497 0.0061306 0.269058 0.292657 -4.17463 0.27377 0.136423 -0.0615525
188 1 10.0407 24.0693 2.91409 -1.30348 -2.27273 0.479064 4.67883 -3.95764 -0.418681 1.23842 0.0301089
190 1 12.925 24.1389 3.02958 -1.55903 -2.12372 1.13416 0.400445 -3.97391 -0.732426 0.466153 0.018878
278 1 9.94955 21.4304 6.1839 1.38589 -0.978514 1.96516 0.325047 -3.98341 0.0996322 -0.92611 -0.593049
280 1 12.8739 21.3633 5.99675 1.61778 1.13426 1.57654 0.292182 -4.11833 -0.0656431 0.144447 0.0434311
288 1 10.0194 24.1956 6.16457 2.68269 2.22443 1.78439 0.385688 -4.00317 -0.435571 0.214112 -0.238841
289 1 11.3072 22.8471 4.57057 -3.96248 4.07387 -0.259648 0.489214 -4.08351 0.500224 -0.15797 0.109307
290 1 12.8777 24.1232 6.05239 1.06046 -1.98762 3.24564 0.236794 -4.08031 -0.38153 0.222482 0.0271392
192 1 1.54582 26.9795 3.08984 0.832332 -0.820942 0.130328 0.146323 -4.12454 -0.403533 0.0341072 0.0084555
194 1 4.33343 27.1078 3.03294 -1.61671 -3.20912 1.28134 0.250308 -4.04772 -0.207959 -0.743619 -0.549126
291 1 0.123486 25.6243 4.68718 -1.91934 -0.395923 -0.219087 0.37791 -3.99294 0.23874 -0.101794 -0.428939
292 1 1.58125 27.1181 5.96843 0.521729 -0.104332 -0.21211 0.265793 -4.11222 0.0129791 -0.322195 0.320458
293 1 3.0799 25.6086 4.54281 2.80973 1.17343 -0.298043 0.380317 -3.98611 -1.05021 -0.154225 0.284826
294 1 4.2495 27.1204 6.04499 -1.17778 2.9951 1.58236 0.251533 -4.03292 0.854596 -0.111777 -0.373047
196 1 7.3038 27.0489 3.17354 3.37805 -2.98627 4.17109 4.77917 -3.9993 -0.832132 0.0890759 -0.630177
295 1 5.73558 25.636 4.52211 2.43808 0.681994 -1.51506 0.156756 -4.07246 0.528323 -0.0225103 0.149445
296 1 7.17419 27.0665 5.95834 0.309675 6.50899 -1.89168 0.245095 -3.9653 -0.220285 0.772176 -0.350162
297 1 8.56397 25.5256 4.56823 -0.134748 1.31643 -3.31811 0.346111 -4.07771 1.06146 0.0885721 0.117092
209 1 11.3537 28.3011 4.63472 -0.393176 -1.47754 0.78913 5.70595 -3.95191 0.265397 0.829759 -1.10301
198 1 9.95313 27.0869 2.97143 0.689763 -0.698924 -1.31982 0.301999 -3.90514 0.266685 -0.330192 1.20615
200 1 13.0099 27.0067 3.02491 5.30296 -0.270392 0.651806 5.34057 -3.98186 -0.523476 0.249995 0.123632
298 1 9.9521 27.1594 6.12226 1.28797 -2.74568 -4.13594 0.325993 -4.04852 -0.679437 -0.547583 0.456227
299 1 11.357 25.6421 4.61047 0.613569 6.18239 1.53807 6.00989 -3.98188 0.501375 -0.158936 -0.0319087
300 1 12.9347 27.0657 6.11457 -0.577292 -1.28953 -3.83829 0.298117 -4.05607 -1.03026 -0.196846 0.251174
301 1 0.190771 0.330155 7.44688 0.5675 -0.168496 -2.46061 4.78259 -4.10679 -0.148118 -0.159761 0.104099
302 1 1.52998 1.64637 9.2083 -1.42736 -3.15682 0.972455 0.288945 -4.06064 0.239359 -0.363086 0.0272608
303 1 2.87995 0.257353 7.59969 0.341516 -0.0404191 -2.60214 0.18281 -4.09079 -0.219179 -0.614238 0.203619
304 1 4.29008 1.6221 9.05071 -4.04083 -0.468429 4.02966 0.152429 -4.01341 0.0412346 0.816862 0.446382
311 1 0.149724 2.85167 7.59145 -1.74976 0.28104 0.763369 5.06634 -4.00007 -0.0118541 1.05548 -0.55022
313 1 2.89377 2.99568 7.4789 0.148637 -0.416692 -0.495992 0.342794 -3.98273 -0.198182 0.266979 0.947516
403 1 2.9679 0.297361 10.6303 0.394335 0.406084 2.23505 0.175353 -4.06705 -0.0638887 -0.376986 -0.410336
411 1 0.156785 3.04543 10.5853 0.660313 -0.658618 -1.38298 0.138863 -4.08566 -0.340337 0.157987 0.0306398
413 1 2.87494 3.0559 10.6947 -3.05234 -3.9865 -0.430171 0.333827 -4.10697 0.209002 0.131903 -0.435696
305 1 5.63949 0.272746 7.59541 -2.6762 0.601797 -1.53878 0.272609 -3.96564 0.852616 0.224904 -0.712733
306 1 7.16827 1.7968 9.07987 -0.497955 1.38302 -0.554626 0.424721 -3.9425 -0.588154 -0.908239 0.202175
307 1 8.54451 0.339894 7.63947 2.06573 -1.47317 -0.377265 0.318116 -4.07439 -0.490367 -0.992205 0.438873