ITEM: TIMESTEP
139250
ITEM: NUMBER OF ATOMS
2000
ITEM: BOX BOUNDS pp pp pp
1.0838953229856951e-01 1.4221610467701321e+01
2.1677906459713903e-01 2.8443220935402643e+01
-3.4969739013153887e+00 6.0816973901314952e+01
ITEM: ATOMS id type x y z vx vy vz c_csym c_peratom fx fy fz
2 1 1.62332 1.66863 -1.88091 -0.282889 -3.25185 -0.636516 0.279409 -3.97245 -0.110421 -0.19341 -0.0336904
4 1 4.35789 1.61575 -1.95898 0.990702 -5.33602 3.45801 5.95917 -3.96524 -0.127742 0.129275 0.136268
11 1 0.115605 3.14255 -3.44503 0.617832 -0.194419 3.50607 0.243295 -3.8956 -0.286693 0.1665 -0.0513606
101 1 0.126621 0.284403 -0.31061 -1.57173 1.46596 2.1275 0.153291 -4.00435 -0.415725 -0.203678 -0.395341
103 1 2.85007 0.270771 -0.246125 0.287695 0.367304 -1.8153 0.247997 -3.86332 0.749828 -0.151699 0.0165831
111 1 0.168447 3.08626 -0.281985 -2.2925 0.592843 0.179022 0.134904 -3.96563 0.0552737 -0.290347 -0.463629
113 1 2.87763 3.13123 -0.221947 -1.71434 2.42111 -1.1208 5.87368 -3.92921 0.151593 -0.163675 -0.0590321
13 1 2.94284 3.10367 -3.47639 -0.0706192 -1.95523 0.774801 0.0757722 -3.89398 -0.067108 0.231542 0.259315
6 1 7.17995 1.58532 -1.88822 -1.53139 -1.81767 -2.43971 0.233865 -3.94638 0.277526 0.433938 -0.127916
17 1 8.63608 3.25517 -3.4221 -1.24355 -0.0988133 -0.860341 9.84839 -3.94265 -0.638077 -0.538935 -0.0488722
105 1 5.90739 0.22905 -0.280415 0.812795 -1.48127 -4.16198 0.296323 -3.94832 -0.172081 0.0115015 0.231118
115 1 5.79048 3.13764 -0.296362 -0.932742 0.818202 0.0439582 0.185427 -3.9279 -0.0228318 -0.434594 0.33442
117 1 8.60233 3.08029 -0.209427 0.475293 0.415756 -1.302 0.177597 -3.91734 -0.0105776 -0.0234601 -0.703944
15 1 5.86915 3.09703 -3.43518 -1.1078 -3.23994 -0.243916 0.303592 -3.86675 -0.601229 -0.0745132 -0.00529119
8 1 9.98472 1.71462 -2.01294 1.02028 2.64764 -1.65962 0.442197 -3.93256 -0.249509 -0.489008 0.605845
9 1 11.3244 0.287262 -3.38841 -0.628437 1.37052 0.162777 0.430811 -3.92727 0.587617 -0.347423 -0.104354
10 1 12.8557 1.68831 -1.95841 -0.261261 2.58464 0.684826 0.146534 -3.91074 -0.226716 0.0200442 -0.0354823
109 1 11.3921 0.306018 -0.312765 4.17545 -4.26001 3.01885 0.173367 -3.92703 -0.180295 -0.398476 -0.236521
119 1 11.4562 3.11085 -0.37126 -0.877516 0.612354 1.13148 0.163297 -3.97233 -0.432621 -0.779378 0.245032
12 1 1.52356 4.6359 -1.99145 1.18436 1.40208 1.05812 0.606511 -3.91982 -0.143444 -0.689138 0.0784273
14 1 4.34915 4.42365 -1.78037 -0.761965 1.11821 -1.53086 0.281844 -3.98252 0.138709 0.00773589 -0.391065
22 1 1.54026 7.32431 -1.96195 0.529166 1.27637 -0.648244 5.90569 -3.90004 -0.0147291 -0.300532 0.858315
23 1 3.01689 5.92797 -3.46721 4.21453 0.286138 -0.65637 0.227689 -3.9025 -0.424982 -0.195485 -0.336365
24 1 4.35552 7.36387 -1.88633 0.718611 1.41969 0.425215 0.113336 -3.9266 -0.0292108 -0.0622582 0.0232861
121 1 0.132435 5.82793 -0.289486 -2.35864 3.10392 -0.471262 0.195454 -3.91444 0.30649 0.136178 -0.0632335
123 1 3.01618 5.86763 -0.186869 1.00139 1.8653 -1.24788 5.87826 -3.94784 -0.256456 -0.0197703 -0.0111468
16 1 7.14135 4.5226 -1.80321 0.603539 0.154603 0.133915 0.166665 -3.95552 -0.0921489 -0.247026 -0.483964
25 1 5.70759 5.92495 -3.36991 -0.827089 1.1553 2.35682 5.12226 -3.98508 0.332512 -0.615809 -0.190586
26 1 7.1412 7.16975 -1.93971 -0.0337704 2.62343 0.778117 5.29065 -3.86308 -0.0107879 0.693388 -0.0226237
125 1 5.74127 5.95799 -0.24281 -0.136011 -2.75282 -0.154075 0.139422 -4.04953 0.200833 -0.189257 0.25521
127 1 8.57446 5.88387 -0.388712 -1.51658 -3.67076 0.00771245 0.408173 -3.92528 0.126621 -0.169835 0.560442
18 1 10.0587 4.47472 -1.88474 2.01504 1.15568 0.108705 0.221587 -3.95182 -0.134004 0.665984 0.143546
20 1 12.7939 4.54238 -1.92099 -0.022531 3.00342 -1.17168 0.0654297 -4.00519 0.129821 -0.0666019 0.0264712
28 1 10.1169 7.35391 -1.78862 1.08986 -1.21663 1.80841 0.42293 -3.92801 -0.718558 -0.119124 -0.120669
29 1 11.4127 5.98723 -3.47774 1.3822 1.47477 -0.555896 0.0546096 -3.97486 -0.0994323 -0.507508 -0.245503
30 1 12.8531 7.28188 -1.81922 0.362699 -0.519128 0.486825 0.139437 -3.98295 -0.278457 0.307045 -0.0204756
129 1 11.3642 5.90889 -0.235109 -0.995542 1.01394 2.2528 0.114432 -4.0068 0.111683 -0.194082 0.156163
32 1 1.48279 10.1923 -1.95924 2.66336 -1.18469 0.933482 0.248786 -4.03208 0.504035 -0.335723 0.446058
34 1 4.32744 10.195 -1.95825 -3.42019 -1.92301 1.41173 0.204596 -3.94213 0.00652347 -0.416026 0.343625
43 1 2.92107 11.628 -3.47277 2.17426 0.782241 3.50485 0.12482 -4.01909 -0.125579 -0.333577 -0.386008
133 1 2.87707 8.77788 -0.253467 -1.44944 0.975575 0.710255 0.0937546 -3.87749 0.0948745 -0.321552 0.235719
141 1 0.146359 11.6297 -0.376917 -2.20193 -7.04944 -1.51669 0.345033 -3.99695 0.00237054 0.249895 0.065232
143 1 2.92416 11.521 -0.27895 -0.572232 1.1909 1.77002 0.16942 -4.01391 0.0740494 -0.0790328 -0.537088
36 1 7.17897 10.1662 -1.83528 0.10168 3.47717 0.174941 0.174943 -3.8697 -0.154916 -0.395093 -0.10119
47 1 8.63625 11.4798 -3.38547 -1.46078 2.66256 0.234251 0.301806 -3.9514 -0.36693 0.177599 -0.40115
135 1 5.71447 8.72482 -0.171102 -0.880733 0.590278 -0.109653 5.81195 -3.90396 0.175508 -0.183918 -0.134376
137 1 8.61908 8.74613 -0.348919 -4.19951 1.4167 -2.48788 0.385638 -3.96508 -0.0262201 0.090915 -0.482132
145 1 5.78797 11.4174 -0.276146 0.913579 -3.10787 0.676852 5.82781 -3.91766 -0.0189983 0.624149 0.417821
147 1 8.63173 11.5707 -0.165098 -2.52053 -2.66134 -2.016 0.203225 -3.95706 -0.448869 0.476201 -0.944433
37 1 8.64539 8.6808 -3.35321 -0.410704 1.96136 0.795798 5.53503 -4.00544 -0.154806 -0.0343384 -0.148748
41 1 14.1834 11.5242 -3.38971 -1.35835 -5.95404 3.83557 0.262411 -3.97334 0.0641953 0.413646 -0.160126
131 1 14.189 8.78043 -0.14851 -1.59748 2.05417 3.03081 0.437174 -3.87848 0.864955 -0.352164 -0.202364
38 1 10.1092 10.2499 -1.76126 0.647054 3.02786 -2.05404 0.502499 -3.96872 -0.690821 -0.327286 0.324805
39 1 11.3428 8.78317 -3.44028 2.80774 -0.622395 -1.00191 0.224633 -3.96176 0.413404 0.0341412 0.305189
40 1 12.8549 10.1114 -1.74233 -1.75728 -0.634733 -0.267602 0.26338 -3.96145 0.0158808 0.0867586 0.0474383
139 1 11.4119 8.69776 -0.184943 -0.425376 2.4171 -0.0430739 0.114481 -4.01006 0.336329 0.714265 -0.371798
149 1 11.4267 11.5446 -0.183988 -0.904464 -0.906018 0.248794 0.18424 -3.97394 -0.199944 0.522895 -0.237582
49 1 11.351 11.4979 -3.4093 -3.94296 -1.72452 -3.57845 0.147879 -3.92111 0.53284 0.217012 -0.115949
42 1 1.60077 12.9976 -1.97714 -0.841826 -0.173751 0.753914 0.446759 -3.94908 -0.490056 0.104515 0.162989
44 1 4.30049 12.9516 -1.99362 -1.17519 0.372824 -0.13007 6.19108 -4.01726 0.447141 -0.0162976 -0.0976767
52 1 1.58776 15.7356 -1.72802 -0.585983 1.26946 1.71295 5.26618 -3.82438 -0.456051 -0.0232262 -0.58415
54 1 4.38463 15.6552 -1.88995 0.269637 0.959657 1.9614 0.285838 -3.99138 -0.35607 0.11641 -0.216008
153 1 2.9946 14.2978 -0.264705 -3.03426 -0.361765 3.65674 0.169153 -3.91552 -0.283459 -0.0696457 0.276378
46 1 7.13899 12.8477 -1.91665 -0.042375 -0.703018 -2.37022 5.33691 -3.92313 -0.406193 0.454495 0.00352041
56 1 7.08452 15.7726 -1.9758 0.19616 0.505449 -1.21975 0.272821 -4.00022 0.381051 -0.328452 -0.111412
155 1 5.76502 14.3443 -0.326468 -0.699273 2.50818 -2.71856 0.10524 -3.95217 0.291423 0.194941 0.473674
157 1 8.53251 14.4644 -0.23522 1.77519 1.9958 -4.01974 5.29266 -3.94917 -0.31266 -0.567629 0.126823
57 1 8.49816 14.3386 -3.34437 5.27468 2.46447 0.151665 0.552789 -3.84555 0.061731 0.377798 -0.605267
51 1 14.0057 14.3518 -3.49652 5.08997 3.62125 -2.07853 5.01504 -3.86571 1.20907 -0.105458 -0.355356
151 1 14.2009 14.4155 -0.255592 -4.71089 2.01634 -0.85659 0.129976 -3.86703 -0.268891 -0.301053 0.220637
48 1 9.93985 13.0563 -1.86164 2.86016 2.34417 0.701272 5.3103 -3.94362 0.13992 -0.520366 0.0401815
50 1 12.7181 12.9904 -1.86457 0.559624 -1.36974 -0.820506 0.187902 -3.94952 -0.0710356 -0.50641 0.334241
58 1 9.99316 15.7186 -1.88122 -3.3381 -1.51398 5.38263 0.183401 -3.99476 -0.0695648 0.0678065 -0.163097
60 1 12.7967 15.7437 -1.87511 1.53771 1.90327 -4.70531 0.115439 -3.99839 -0.469398 0.0651898 0.318628
159 1 11.3491 14.3264 -0.201259 -0.265735 -1.65506 -3.98071 0.156196 -3.95764 0.226996 0.180624 0.00846162
62 1 1.43944 18.5161 -1.83657 0.272627 0.831543 -0.200207 0.118093 -3.91174 0.247442 0.221153 -0.188277
64 1 4.38586 18.6552 -1.83205 1.24428 1.0664 2.86252 5.44435 -3.91676 -0.590211 -0.88648 -0.00721625
163 1 2.94245 17.1558 -0.378371 0.341627 2.40032 0.506019 0.422497 -3.93911 0.649764 0.0240546 0.158795
171 1 0.141802 19.9783 -0.160935 -0.0590841 -1.37942 4.27312 0.181433 -4.01799 -0.610322 -0.160386 -0.0588609
173 1 2.89555 19.9823 -0.288509 0.785649 -1.23368 2.3689 0.152105 -3.99268 -0.345013 -0.493797 0.63365
66 1 7.24355 18.6165 -1.83289 2.75597 -4.35103 0.905848 4.9276 -4.00712 -0.638982 -0.166585 0.0574881
67 1 8.57677 17.1461 -3.47086 -4.30079 -3.56988 1.31798 0.0496161 -4.03579 -0.453001 -0.0239612 0.318573
165 1 5.78304 17.093 -0.336234 1.97311 1.99329 -0.167527 0.248589 -3.94209 -0.362015 0.479392 -0.0691962
167 1 8.56005 17.078 -0.393705 1.63712 1.01306 -0.622391 4.8691 -3.98764 -0.120263 -0.270088 0.916978
175 1 5.70632 20.007 -0.260563 -3.42076 -2.85137 2.01629 0.138562 -3.95182 0.352941 0.0487712 0.306227
177 1 8.58858 20.043 -0.039193 -1.05917 0.80188 -0.731301 5.46822 -3.91958 0.0025764 -0.562178 -0.541983
75 1 5.71713 19.9361 -3.48681 -4.53949 -0.9021 2.29786 0.13623 -3.94307 -0.286451 0.358743 -0.146026
65 1 5.67248 17.193 -3.44575 -1.31158 -3.63153 -0.620776 0.344905 -3.98187 0.108034 -0.0875762 -0.303205
161 1 14.1852 17.2046 -0.155302 -8.06951 -0.86164 0.0732044 0.228597 -4.02136 -0.275791 0.36157 -0.654395
68 1 9.83757 18.5862 -1.80451 1.01621 0.95189 3.77626 5.51448 -3.98252 0.66076 0.730286 -0.0919042
70 1 12.7582 18.5098 -1.84808 -2.75978 -0.241021 0.901339 0.160289 -3.87048 0.00341506 0.412021 0.0951646
169 1 11.4357 17.1907 -0.271921 -0.050047 0.778513 1.36961 0.113962 -3.93563 -0.267062 0.140285 0.305675
179 1 11.4548 19.9395 -0.179935 0.478562 4.61523 -0.247094 0.256306 -3.97438 -0.335047 0.208088 -0.186905
69 1 11.3235 17.1806 -3.3831 2.51938 -0.439877 2.89062 0.231928 -3.93636 0.249412 -0.56231 -0.321114
71 1 14.189 20.001 -3.37593 -3.02828 1.71166 0.793185 0.317842 -3.83671 -0.21553 -0.412818 -0.163351
61 1 14.2026 17.0274 -3.41933 -2.79754 0.110739 5.17862 0.308487 -3.89483 0.239581 0.138201 -0.176985
72 1 1.54936 21.3951 -1.9371 2.3338 -3.4761 -2.56089 0.1823 -4.01828 -0.416385 -0.0787781 -0.435467
74 1 4.24289 21.3195 -1.79764 -0.775897 2.76848 -0.309503 0.389343 -4.08519 0.258517 -0.117162 -0.112179
82 1 1.5098 24.075 -2.01506 -0.197856 1.54937 -4.05427 0.304485 -3.99688 -0.391985 0.413568 -0.250627
84 1 4.24694 24.1216 -1.85754 1.75243 2.83472 -4.12876 0.407177 -3.91526 0.338999 0.53744 -0.179425
181 1 0.128659 22.763 -0.327249 -3.03311 -1.67311 -0.629939 0.0487212 -4.00053 -0.0251352 -0.450081 -0.395085
183 1 2.89382 22.7594 -0.372824 0.572942 -1.11899 -0.365379 0.17447 -4.04625 -0.0997207 0.416032 0.178348
76 1 7.14056 21.2635 -1.88569 -0.691281 0.193514 1.05787 5.51896 -3.83087 0.336885 0.772692 0.402976
86 1 7.25436 24.2668 -1.88287 -2.43118 3.29649 -1.15762 5.86699 -3.8422 -0.10151 -0.402998 -0.133403
185 1 5.72509 22.8979 -0.367384 3.67767 -2.14848 -3.35625 0.481464 -3.9813 -0.173801 -0.884811 -0.177325
187 1 8.47118 22.692 -0.183521 -0.732136 -0.532565 -1.73565 5.36829 -3.94844 0.354888 0.305946 0.000646627
78 1 9.92402 21.3232 -1.94524 -2.14879 -1.2859 1.20999 0.234744 -3.95603 0.153783 0.484204 0.794468
80 1 12.7264 21.3466 -1.86482 -2.02506 0.894117 1.33119 0.065581 -3.91686 0.216886 -0.172539 0.028149
88 1 9.99398 24.1702 -1.83914 -1.34963 2.3224 -3.76156 0.215299 -3.92926 -0.173081 -0.0775307 -0.0963763
90 1 12.8226 24.1983 -1.98073 -3.32555 -1.34099 0.789537 0.187942 -3.89522 -0.477921 -0.0888519 0.173761
189 1 11.404 22.6532 -0.346639 1.1462 2.87937 3.03823 0.294946 -3.87121 0.0661151 0.676463 0.10709
92 1 1.49183 27.0716 -1.89715 -1.55268 0.823337 -0.21304 0.0700012 -3.90805 -0.0479659 -0.343912 0.392238
93 1 2.95679 25.6072 -3.47592 -2.98218 -1.24306 2.03838 0.179383 -3.91834 -0.245063 0.304149 -0.196478
94 1 4.31233 27.0701 -1.72777 -2.42482 -0.468398 -1.32983 0.724154 -3.90658 -0.143674 0.213978 -0.150774
193 1 2.87926 25.4829 -0.356953 -1.0862 0.475835 1.41936 5.68108 -3.91583 0.118905 0.613266 0.0827426
5 1 5.72241 28.2956 -3.41057 2.69086 -0.906142 0.0342517 5.20378 -3.9484 0.155684 0.0175516 -0.255777
107 1 8.62684 28.3911 -0.242037 1.62718 -2.83475 -3.52836 5.75927 -4.01359 -0.325277 0.532534 -0.439499
96 1 7.19496 27.0059 -1.89477 3.8854 -2.09663 -3.2721 0.0398897 -4.01365 -0.187243 -0.0562356 0.640869
195 1 5.7699 25.6353 -0.340851 -1.7019 -1.17403 1.74296 6.01359 -3.87407 -0.168929 -0.0566288 0.496639
197 1 8.65402 25.6862 -0.284251 -0.592902 -0.620959 0.00800132 0.328945 -4.00899 -0.534913 -0.325533 -0.044901
7 1 8.51249 28.4072 -3.38796 0.305773 -1.36188 3.04787 0.360405 -3.94606 -0.341551 0.0183269 -0.167299
191 1 14.1954 25.5315 -0.330962 -0.0885336 -4.4938 -0.48509 0.209439 -3.87894 0.62012 0.571649 -0.774283
98 1 9.85719 27.0277 -1.9422 2.60699 4.64685 0.62246 5.62667 -4.04395 0.55359 0.0767074 -0.0523541
100 1 12.8111 27.1397 -1.88338 0.688756 2.41483 -3.36628 0.111904 -3.92838 -0.0340376 -0.456234 0.115445
199 1 11.3947 25.7747 -0.282563 -1.77748 -0.753815 0.440887 0.588938 -3.88446 0.678275 -0.181656 -0.17936
99 1 11.3966 25.6653 -3.43016 -3.11862 -0.640777 0.494149 0.143778 -3.96337 -0.222131 0.00296877 0.116579
102 1 1.43258 1.58866 1.35516 7.38627 -3.29026 1.48818 0.299735 -4.01261 0.321347 0.246626 0.299463
104 1 4.40471 1.70471 1.25899 -2.62904 -0.431866 -2.50035 0.237198 -3.9154 -0.536704 -0.232754 -0.0922936
202 1 1.64591 1.56967 4.4195 2.02744 3.5456 -1.59179 4.75961 -4.02017 -0.995062 0.704083 -0.273616
203 1 2.94499 0.259696 2.88892 -1.3304 -3.48688 0.0854903 0.131194 -4.03128 0.253933 0.36014 -0.540299
204 1 4.18458 1.68524 4.50603 -0.935437 1.48785 2.63114 4.69993 -3.9727 1.21806 -0.563912 -0.364059
213 1 2.88677 3.08084 2.85242 -2.28947 -0.845795 -1.07431 0.367176 -3.98773 0.329462 -0.0762981 -0.231707
106 1 7.15632 1.63052 1.24294 0.736671 -1.16949 0.0239501 0.253904 -4.03137 0.487929 0.628259 0.338163
205 1 5.64874 0.299036 2.74566 2.33469 0.995414 0.291621 4.77217 -3.87997 0.478102 -0.216062 0.636948
206 1 7.2548 1.68985 4.46499 -1.46106 -1.55409 1.7364 4.93338 -3.92445 -0.379135 -0.499709 -0.231404
207 1 8.58474 0.236208 2.96972 1.31666 3.04051 1.49325 0.159066 -3.93861 0.531678 -0.214683 -0.451577
215 1 5.78167 2.95842 3.02552 -1.49422 -2.50707 3.51511 0.541798 -3.93302 -0.263438 0.0880486 -0.0458069
217 1 8.60442 3.0921 2.9136 -1.80041 2.92479 -5.24384 0.123458 -4.0023 -0.318855 -0.0487831 0.322485
201 1 14.2143 0.277593 2.97359 -0.76465 1.66164 -3.30675 0.329384 -3.97717 -0.249607 -0.168626 0.281322
211 1 14.1953 3.09372 3.03096 0.131749 -3.47244 0.658656 0.287957 -3.90935 -0.0188433 -0.463617 -0.0791357
108 1 9.98023 1.81548 1.37815 1.78008 -0.0382443 0.481447 5.76783 -3.87061 0.432885 -1.15575 0.155523
110 1 12.7567 1.63776 1.28233 0.143622 0.261967 0.471904 0.165659 -3.85692 0.397453 -0.0128086 0.30684
219 1 11.4042 3.08595 2.93997 2.96876 -3.6 -0.306264 0.0665851 -3.91329 -0.308526 0.0661214 -0.0332524
112 1 1.47335 4.44722 1.44407 -2.08488 5.53109 1.88305 0.253444 -3.92498 0.290209 0.429782 -0.230146
114 1 4.45714 4.53943 1.45725 0.408107 -1.46821 1.68028 5.31638 -3.99344 0.050384 -0.673605 -0.133908
122 1 1.5387 7.19477 1.40918 -2.178 2.10286 -1.52883 0.269069 -3.85241 -0.121387 0.17919 -0.152962
124 1 4.30599 7.3213 1.38511 -1.70609 -0.894295 0.386355 0.161114 -3.92827 -0.240815 0.0959459 0.14237
223 1 3.00176 5.86832 2.98188 -2.9209 -3.41332 -1.19244 0.120539 -3.97845 -0.0605781 0.115441 0.316731
116 1 7.08446 4.43511 1.38556 -0.717838 -0.661302 1.69127 5.4274 -3.96111 0.394727 0.462276 -0.249954
126 1 7.33953 7.39572 1.36324 1.37971 -3.46356 0.697126 5.63196 -3.85713 -0.698656 -0.263405 -0.0890012
216 1 7.15048 4.45322 4.421 0.663868 1.20315 1.59813 0.359904 -4.01916 0.0121651 0.605945 0.166639
225 1 5.7941 6.05956 2.8916 0.299468 -1.75276 -1.18853 5.71252 -3.92393 0.0641269 -0.313394 0.377896
227 1 8.61587 5.8789 2.89857 -0.532809 -0.371899 0.126652 0.140842 -3.94258 0.190013 0.0123234 0.0596285
221 1 14.1524 5.86373 2.99679 0.796103 -1.93786 -0.0692733 0.133653 -3.97511 0.181231 0.1042 -0.208654
118 1 10.0291 4.4796 1.34631 -2.00022 0.251406 -1.34662 0.107788 -4.02309 -0.317682 0.0362133 -0.328503
120 1 12.7727 4.51546 1.2786 -2.93314 -0.0391201 0.674702 0.12264 -3.97388 -0.115188 -0.348456 0.0695438
128 1 10.0124 7.32217 1.29472 -2.7644 2.28321 3.1472 5.73793 -4.00926 -0.248928 0.154709 -0.0385219
130 1 12.7448 7.26336 1.30098 -1.8326 -3.86476 -3.53257 0.172843 -3.98727 0.576137 0.0964624 0.158554
218 1 9.92391 4.44006 4.54018 2.54663 2.02038 1.45237 0.0898651 -3.99553 0.450427 0.222925 0.112031
220 1 12.7806 4.44772 4.53149 -0.879614 -1.25736 1.20844 0.0659069 -3.86748 -0.236621 -0.25702 0.553134
229 1 11.2652 5.91426 2.97538 0.58398 1.74186 -1.1864 5.35666 -3.99234 0.595821 -0.20778 -0.177052
230 1 12.8446 7.35538 4.4522 2.31232 0.678649 1.21522 0.282589 -3.94983 -0.448807 -0.753167 0.416087
132 1 1.49806 10.2454 1.25886 0.926583 1.77752 2.20689 0.209487 -3.94961 0.0409321 -0.378788 0.196587
134 1 4.33421 10.2257 1.40412 -1.95039 -2.01599 -1.69927 5.53244 -3.91524 0.198256 -0.670434 0.123458
233 1 2.86938 8.7146 2.99954 -0.683116 0.194601 5.31636 0.149056 -3.86004 0.253724 -0.0171236 -0.459694
234 1 4.30212 10.2221 4.538 -0.621179 0.157015 -0.123602 5.5865 -3.93451 0.679425 -0.359763 -0.0409493
241 1 0.149986 11.5192 2.89311 -2.41095 0.904273 -0.0212207 0.0960176 -3.9908 -0.0413271 -0.284867 0.363287
243 1 2.87755 11.525 2.83717 -0.234391 0.744033 0.670144 0.264211 -3.96346 -0.0549789 -0.0825152 0.244282
136 1 7.34978 10.1327 1.38013 0.629619 0.98562 1.20116 5.13673 -4.01638 -0.691609 0.197722 -0.0263057
235 1 5.87066 8.81598 2.86257 0.465343 -1.43871 1.4062 0.401429 -3.95481 -0.369517 -0.32877 0.277172
237 1 8.63235 8.75913 3.09908 2.56455 0.935182 0.542097 0.405157 -4.05288 -0.1667 0.211823 -0.437672
245 1 5.87987 11.5851 2.93114 0.240801 -0.541356 -0.243051 0.426084 -3.94777 -0.595524 0.104179 0.109378
247 1 8.6244 11.498 3.04703 0.432483 -3.51449 2.45946 0.208396 -4.03555 0.0368453 0.7515 -0.261338
231 1 14.2058 8.74973 2.89202 -0.187028 1.52542 1.17023 0.0882417 -3.9887 0.133723 -0.0980115 0.0859191
138 1 9.92992 10.142 1.30901 -1.64946 -2.47072 4.24093 5.39684 -4.04279 0.515816 -0.0841685 0.366589
140 1 12.8378 10.2224 1.31768 -3.06779 0.590986 0.953237 0.203097 -4.00183 -0.468235 -0.215808 0.412124
239 1 11.364 8.67474 2.89984 1.07823 -1.10089 5.00007 0.10377 -3.98703 0.241964 -0.113648 0.0994258
240 1 12.788 10.0949 4.37784 0.473313 1.12475 -2.36237 5.24591 -3.8967 0.286628 0.63919 0.90087
249 1 11.3994 11.5636 3.03557 0.00818624 4.09037 -1.73351 0.269777 -3.97923 -0.134537 0.0179746 -0.106193
142 1 1.52181 13.0509 1.42694 -1.28477 -4.17543 2.9049 0.375455 -3.97931 0.00854507 -0.00967576 -0.426629
144 1 4.29805 12.8216 1.24784 1.81958 -2.20134 0.0142737 5.02611 -3.93477 0.583637 0.773877 0.589795
152 1 1.51339 15.8576 1.40117 -0.669006 2.84052 -0.820189 5.51586 -4.0543 0.354578 -0.540122 -0.541379
154 1 4.25725 15.7179 1.3093 2.46855 -1.35996 -1.82568 0.311509 -3.93967 0.737801 0.363695 -0.336201
242 1 1.53992 12.9165 4.50506 0.280113 3.4737 -1.1283 0.129173 -4.00331 0.393724 0.364374 -0.226634
244 1 4.24982 12.7782 4.53375 2.14938 -0.0921022 -0.749942 5.52021 -3.9424 0.408093 0.70951 -0.0153747
251 1 0.128475 14.4623 2.9993 2.68999 -0.1114 0.508103 0.234808 -3.94844 -0.0168292 -0.0367159 -0.385865
252 1 1.63436 15.7834 4.41071 -3.12021 0.366244 0.726554 4.75661 -3.90903 0.119654 -0.489475 0.155298
253 1 3.02926 14.3678 2.97212 0.643288 -2.70259 -2.00417 0.36846 -3.94512 -0.28377 -0.0166025 0.00901823
146 1 7.13468 12.9886 1.32478 1.04428 0.1527 -2.62964 0.133918 -3.83563 0.335353 -0.642679 -0.0946947
156 1 7.1141 15.8395 1.35379 -5.45427 -4.00032 2.42238 0.303346 -3.96348 0.258962 -0.168415 0.301515
255 1 5.79332 14.3612 2.88283 0.949383 2.2935 -3.25327 0.187563 -3.9392 -0.604396 0.341163 0.563976
256 1 7.19239 15.8423 4.43402 -0.861153 0.781607 -0.146585 0.405328 -4.00256 0.528937 -0.220908 0.366773
257 1 8.60857 14.4287 2.98985 -2.00567 3.54744 2.76289 0.0766103 -3.93379 -0.34189 -0.211644 -0.0947197
148 1 10.0789 12.8625 1.42962 2.53119 -0.204599 1.59625 5.36402 -3.92148 -0.351498 0.565309 -0.212327
150 1 12.8144 12.9078 1.39314 0.842405 -1.04171 -0.584461 0.16536 -4.01599 0.597705 -0.00486107 -0.210303
158 1 10.0599 15.8093 1.41128 1.95172 -4.28031 -2.67566 0.270339 -3.89673 -0.0262082 -0.275527 0.102386
160 1 12.7974 15.8078 1.30417 2.05154 2.79304 -0.0709358 0.209855 -3.94588 -0.185567 -0.0970275 0.78283
250 1 12.9049 12.9601 4.48273 1.45982 -1.9964 -1.75047 0.284469 -3.98354 -0.270762 -0.393856 0.428912
259 1 11.5154 14.2983 2.92946 2.36546 0.76793 -0.871017 0.270786 -3.99262 -0.582149 0.588919 0.0411129
162 1 1.61205 18.4318 1.33851 0.103087 0.473685 0.329909 5.24408 -3.9531 -0.125619 0.459047 0.231081
164 1 4.41893 18.6151 1.21638 -0.211573 3.22505 -5.20284 0.36914 -3.95651 -0.125012 -0.503625 0.151622
262 1 1.64124 18.6991 4.52161 -1.57751 0.894061 -4.43727 5.24684 -3.98106 -0.374146 -0.409226 -0.251517
263 1 3.02324 17.1738 2.91518 -2.37006 -0.133771 0.32695 0.277294 -4.00115 -0.00763463 0.509396 0.55514
271 1 0.239882 19.931 2.81704 -2.9132 -1.24747 -1.34561 0.626284 -3.97374 -0.384133 0.233765 0.340686
273 1 3.06119 20.0027 2.93239 0.40391 -0.0741893 3.19324 5.6276 -3.95501 -0.11511 0.502888 -0.466964
166 1 7.16241 18.5363 1.31893 0.698547 0.150344 -2.49931 0.194416 -3.98244 -0.294398 -0.279949 -0.223056
265 1 5.71847 17.1429 3.06 -1.6126 -0.82668 -3.54668 0.477871 -3.96597 -0.260343 0.0677191 -0.357886
266 1 7.25348 18.553 4.43535 1.95445 3.37989 -0.145865 5.12746 -3.88825 -0.730025 0.245821 -0.0662878
267 1 8.63962 17.1234 2.85247 1.62128 1.24999 -1.44411 0.28011 -3.94379 -0.212997 0.500028 -0.00889439
275 1 5.66392 19.9514 2.9391 0.0670137 -1.38317 -3.87798 5.24098 -3.95779 0.454034 0.239988 0.192917
277 1 8.52362 20.0544 2.92767 0.898333 -0.0775842 -0.479706 4.87339 -3.98205 0.287292 0.115807 0.144988
261 1 14.1769 17.1487 3.01408 3.22524 -0.724689 1.23685 0.364172 -4.00204 0.373972 0.228035 0.246233
168 1 9.9888 18.5753 1.3646 -3.61858 0.233632 -1.83299 0.226757 -3.92068 -0.0242604 -0.242005 0.292084
170 1 12.8038 18.6463 1.4776 0.900172 4.64776 -2.52583 0.354921 -3.99892 -0.218487 -0.346068 -0.029244
269 1 11.4148 17.1891 3.12698 1.22914 3.37173 -1.05524 0.43052 -3.95892 0.0804693 0.487889 -0.559239
270 1 12.909 18.7314 4.52722 -1.75346 -1.91228 -0.862528 5.5491 -3.92135 -0.517924 -0.0456164 0.219475
279 1 11.3598 20.0486 2.90436 2.0114 -4.45816 0.994583 0.284172 -3.89681 -0.664289 0.259698 0.331647
172 1 1.47279 21.4257 1.36791 2.33301 -0.225112 2.95214 0.28724 -3.97214 0.525964 -0.164262 0.118787
174 1 4.32705 21.4567 1.20461 -1.27528 -0.710527 -1.51037 0.292958 -3.97355 0.168333 -0.401757 0.0255406
182 1 1.5749 24.1646 1.31719 -0.784188 -3.79054 -2.16947 0.0658155 -3.98414 -0.237924 0.382815 0.35664
184 1 4.3073 24.238 1.27172 -0.587332 0.565944 -1.32797 0.147604 -3.97317 0.0881042 -0.463396 -0.0834331
272 1 1.50093 21.4332 4.44156 -1.3891 0.701157 2.48604 0.397173 -4.02905 0.311784 -0.413678 0.20887
281 1 0.183488 22.7914 2.99606 -2.74019 0.616667 0.622568 0.170025 -3.9302 -0.448539 0.295683 -0.459399
283 1 2.92311 22.8102 3.015 1.18139 2.06881 4.32688 0.193503 -3.904 0.79637 -0.29348 -0.178529
176 1 7.06694 21.3141 1.38996 -3.95137 -1.5893 -1.01736 0.401939 -3.99612 0.184002 0.377259 -0.626851
186 1 7.17879 24.1447 1.21887 2.78581 2.06017 1.88695 0.201836 -3.89013 0.426 0.779019 -0.18305
285 1 5.85589 22.7635 2.7954 1.31531 1.02106 -0.50399 0.579429 -3.89902 -0.652438 0.216706 0.550791
287 1 8.6565 22.7436 2.84423 2.42 3.87829 -0.705154 5.02358 -4.05357 -0.645932 0.604432 0.390435
178 1 9.99102 21.4199 1.27675 -1.13098 -1.50552 3.15931 0.261388 -4.02264 0.679355 -0.110737 -0.0515131
180 1 12.8404 21.4228 1.41744 -0.471497 0.0061306 0.269058 0.317737 -4.08083 0.281487 0.158174 0.136527
188 1 10.0407 24.0693 1.16431 -1.30348 -2.27273 0.479064 4.92567 -3.87632 -0.503283 0.744069 -0.288555
190 1 12.925 24.1389 1.28765 -1.55903 -2.12372 1.13416 5.69568 -3.8612 -0.403046 -0.0272638 0.543354
280 1 12.8739 21.3633 4.45648 1.61778 1.13426 1.57654 5.72315 -3.98872 -0.0288421 0.285843 -0.232787
289 1 11.3072 22.8471 2.93337 -3.96248 4.07387 -0.259648 0.502362 -3.98669 0.409851 -0.27159 0.398859
290 1 12.8777 24.1232 4.51589 1.06046 -1.98762 3.24564 0.241884 -3.984 -0.0875621 0.219923 0.576547
192 1 1.54582 26.9795 1.352 0.832332 -0.820942 0.130328 5.34831 -3.98379 -0.353881 0.272897 0.0487692
194 1 4.33343 27.1078 1.29124 -1.61671 -3.20912 1.28134 0.255632 -3.94679 -0.356571 -0.426839 -0.761857
291 1 0.123486 25.6243 3.05791 -1.91934 -0.395923 -0.219087 0.416635 -3.92021 -0.165351 -0.343188 -0.401513
292 1 1.58125 27.1181 4.42624 0.521729 -0.104332 -0.21211 5.43521 -4.01198 -0.311619 -0.63849 0.205478
293 1 3.0799 25.6086 2.90373 2.80973 1.17343 -0.298043 5.96702 -3.90096 -0.407372 -0.239174 0.578583
294 1 4.2495 27.1204 4.50799 -1.17778 2.9951 1.58236 0.256519 -3.94749 0.857525 -0.1698 -0.470487
196 1 7.3038 27.0489 1.44139 3.37805 -2.98627 4.17109 4.96097 -3.90944 -0.974242 -0.223181 -0.388804
295 1 5.73558 25.636 2.88162 2.43808 0.681994 -1.51506 5.27788 -3.9555 0.0174193 0.346939 -0.105016
296 1 7.17419 27.0665 4.41546 0.309675 6.50899 -1.89168 0.264412 -3.89546 -0.292063 0.25382 -0.378867
297 1 8.56397 25.5256 2.93087 -0.134748 1.31643 -3.31811 0.362332 -3.93754 0.687187 -0.0835864 -0.139281
209 1 11.3537 28.3011 3.00188 -0.393176 -1.47754 0.78913 6.01629 -3.83092 0.507235 0.581991 -0.603917
198 1 9.95313 27.0869 1.22554 0.689763 -0.698924 -1.31982 5.23886 -3.83753 0.3443 0.141812 0.581533
200 1 13.0099 27.0067 1.28266 5.30296 -0.270392 0.651806 5.62086 -3.88021 -0.282441 0.142527 0.0682688
299 1 11.357 25.6421 2.97598 0.613569 6.18239 1.53807 6.35769 -3.83394 0.36051 0.126884 -0.24587
301 1 0.190771 0.330155 6.00517 0.5675 -0.168496 -2.46061 5.00922 -4.01589 0.0995302 -0.416661 0.209065
302 1 1.52998 1.64637 7.8863 -1.42736 -3.15682 0.972455 0.323207 -3.96794 -0.151328 -0.238561 -0.135798
303 1 2.87995 0.257353 6.16836 0.341516 -0.0404191 -2.60214 0.190195 -4.02441 0.00268739 -0.0891481 0.123205
304 1 4.29008 1.6221 7.718 -4.04083 -0.468429 4.02966 0.160789 -3.90058 0.270216 0.825147 0.464575
311 1 0.149724 2.85167 6.15956 -1.74976 0.28104 0.763369 5.30099 -3.88379 -0.176365 1.38265 -0.390443
313 1 2.89377 2.99568 6.03936 0.148637 -0.416692 -0.495992 0.370882 -3.88566 0.125434 0.0130079 0.317362
305 1 5.63949 0.272746 6.16378 -2.6762 0.601797 -1.53878 5.32747 -3.84189 0.478173 0.0948246 -0.762237
306 1 7.16827 1.7968 7.74913 -0.497955 1.38302 -0.554626 5.91551 -3.88784 -0.466529 -0.907374 -0.0562799
307 1 8.54451 0.339894 6.21085 2.06573 -1.47317 -0.377265 0.337635 -3.97362 -0.327937 -0.712452 0.0943132
315 1 5.88369 2.98404 6.0751 0.746495 3.22544 0.384377 5.39053 -3.9752 -0.740876 0.749422 -0.0417044
317 1 8.5575 3.091 6.07645 0.877774 1.33708 0.284955 0.0789532 -4.09329 -0.383132 -0.0473739 0.0247619
208 1 9.93587 1.5992 4.55963 -2.11946 3.54369 -4.60115 0.124692 -4.06085 0.182109 0.533056 -0.0209827
210 1 12.7168 1.62492 4.58973 1.93469 -2.84729 3.21644 0.361485 -3.93152 0.0788957 -0.077431 -0.40196
308 1 9.85407 1.73124 7.70324 -3.32365 0.641461 0.348771 0.209069 -3.96065 0.622793 -0.417097 -0.125157
309 1 11.427 0.271834 6.20862 2.261 -0.338001 1.59023 0.159332 -3.94461 -0.206458 0.185113 -0.0594222
310 1 12.8338 1.67333 7.72579 -2.12593 2.9352 -1.91821 0.176116 -3.94076 -0.455549 -0.343262 0.33989
319 1 11.2832 3.0542 6.16767 1.40137 -1.12676 -0.599603 0.111004 -3.99633 0.522328 -0.239847 -0.0568522
212 1 1.5107 4.56417 4.56618 1.71349 1.1107 -0.37813 5.53908 -3.97562 0.491508 -0.514299 0.134316
214 1 4.35594 4.34938 4.58542 -3.60792 0.888428 1.10906 5.04527 -3.93603 -0.144553 0.827023 -0.66369
222 1 1.54559 7.23945 4.54341 2.60978 -1.28947 -2.65909 0.159655 -3.98942 -0.459508 -0.250545 -0.389799
224 1 4.45542 7.31972 4.58151 2.28078 -2.16034 3.83898 0.307564 -3.93018 -0.401653 0.0801255 -0.549682
312 1 1.51633 4.46751 7.67884 6.58074 -1.87872 -2.48992 0.254046 -3.96521 0.393929 0.194625 -0.0807517
314 1 4.38482 4.47065 7.80065 1.38421 -0.500902 1.94911 5.88675 -3.87242 0.0179551 -0.0359079 -0.143028
322 1 1.50912 7.24612 7.66421 2.77664 -2.04083 2.3912 0.113764 -3.94347 0.0585537 -0.316188 -0.00855718
323 1 3.05231 5.91185 6.08998 -1.31866 2.39502 -0.268551 0.267406 -3.94918 -0.546607 -0.314237 0.191532
324 1 4.3708 7.29584 7.69352 1.4459 0.563605 -1.51929 0.131707 -3.971 -0.0567023 0.0189023 -0.0508641
226 1 7.22143 7.27669 4.54635 -1.92098 2.73055 -2.00716 0.112844 -4.00023 0.230536 0.171845 0.228477
316 1 7.10763 4.57462 7.73387 2.31643 -3.52172 -0.258836 0.363088 -3.99569 0.137368 -0.773424 -0.0726389
325 1 5.76431 5.8264 6.02892 -2.43851 2.57701 -2.10025 0.269552 -3.96911 0.122438 -0.159029 0.0111108
326 1 7.19795 7.24786 7.64226 -1.71798 -0.00966545 0.572563 0.272326 -4.02442 -0.641037 0.77289 -0.552695
327 1 8.55272 5.78657 6.24211 -1.12912 -0.410511 1.0442 0.556655 -3.95014 0.338398 0.155531 -0.635921
228 1 9.92162 7.27115 4.63006 0.0778168 -0.255412 1.79302 0.269771 -3.97356 0.233703 0.0641125 -0.0165125
321 1 14.1448 5.82456 6.13123 4.06995 0.134137 -0.309495 0.201382 -3.95055 0.237342 0.673401 -0.030646
318 1 9.98504 4.43593 7.6976 1.75132 -4.65897 3.2673 0.0901124 -3.99513 0.191945 0.136135 0.454923
320 1 12.7757 4.48205 7.70473 1.89733 -3.11783 2.82706 0.188873 -3.92542 0.0777637 -0.455994 0.267081
328 1 10.0129 7.28399 7.57342 2.65819 -0.927283 -2.4793 0.534348 -3.95335 -0.0792894 -0.113596 0.15309
329 1 11.4291 5.87426 6.11311 1.9858 -1.38951 -0.786356 0.0758979 -3.97165 0.126499 -0.215017 -0.35226
330 1 12.8425 7.28945 7.7272 -1.97867 0.420953 -1.07444 0.0967917 -4.03152 0.115742 -0.00498369 0.173487
232 1 1.56015 10.1641 4.56085 2.12226 0.0705619 -0.681687 0.22149 -4.00729 -0.405711 0.166007 -0.612957