ITEM: TIMESTEP
113500
ITEM: NUMBER OF ATOMS
2000
ITEM: BOX BOUNDS pp pp pp
1.0838953229856951e-01 1.4221610467701321e+01
2.1677906459713903e-01 2.8443220935402643e+01
-2.7701430231421469e+00 6.0090143023141707e+01
ITEM: ATOMS id type x y z vx vy vz c_csym c_peratom fx fy fz
2 1 1.62332 1.66863 -1.19061 -0.282889 -3.25185 -0.636516 0.278914 -4.00311 -0.157076 -0.307703 -0.592695
4 1 4.35789 1.61575 -1.26691 0.990702 -5.33602 3.45801 0.24255 -4.00992 0.157071 0.0377692 0.394961
11 1 0.115605 3.14255 -2.71937 0.617832 -0.194419 3.50607 0.233758 -3.93666 -0.0684336 0.141955 -0.369888
101 1 0.126621 0.284403 0.344201 -1.57173 1.46596 2.1275 0.152869 -4.0306 -0.179464 -0.0111295 -0.288768
103 1 2.85007 0.270771 0.407228 0.287695 0.367304 -1.8153 0.245394 -3.8987 0.423575 0.168559 0.219501
111 1 0.168447 3.08626 0.372178 -2.2925 0.592843 0.179022 0.133786 -4.00675 -0.0486519 0.038754 -0.340544
113 1 2.87763 3.13123 0.430859 -1.71434 2.42111 -1.1208 5.77969 -3.96688 -0.232995 0.126957 -0.164678
13 1 2.94284 3.10367 -2.75003 -0.0706192 -1.95523 0.774801 0.074776 -3.92058 -0.146976 -0.0731145 0.335392
6 1 7.17995 1.58532 -1.19775 -1.53139 -1.81767 -2.43971 0.231708 -3.98319 0.0263909 0.869892 -0.261644
17 1 8.63608 3.25517 -2.69696 -1.24355 -0.0988133 -0.860341 5.1864 -3.97661 -0.430992 -0.635169 -0.111508
105 1 5.90739 0.22905 0.373713 0.812795 -1.48127 -4.16198 0.295672 -3.98352 -0.304322 -0.141191 -0.0674602
115 1 5.79048 3.13764 0.358127 -0.932742 0.818202 0.0439582 0.184 -3.95933 -0.21494 -0.419412 -0.168688
117 1 8.60233 3.08029 0.443096 0.475293 0.415756 -1.302 0.172753 -3.95268 0.125932 0.382381 -0.851423
15 1 5.86915 3.09703 -2.70975 -1.1078 -3.23994 -0.243916 0.29983 -3.90022 -0.563836 0.445897 -0.495178
8 1 9.98472 1.71462 -1.31965 1.02028 2.64764 -1.65962 0.42519 -3.96335 -0.162883 -0.0309707 0.897461
9 1 11.3244 0.287262 -2.66403 -0.628437 1.37052 0.162777 0.418817 -3.95876 0.553574 0.0828344 0.0713433
10 1 12.8557 1.68831 -1.26635 -0.261261 2.58464 0.684826 0.142579 -3.93945 -0.535255 0.171799 0.111245
109 1 11.3921 0.306018 0.342094 4.17545 -4.26001 3.01885 0.171662 -3.96365 -0.199697 -0.648067 -0.24686
119 1 11.4562 3.11085 0.284922 -0.877516 0.612354 1.13148 0.159875 -4.00815 -0.46505 -0.771652 -0.250109
12 1 1.52356 4.6359 -1.29864 1.18436 1.40208 1.05812 0.594252 -3.95302 0.153863 -0.707162 0.0668324
14 1 4.34915 4.42365 -1.09234 -0.761965 1.11821 -1.53086 0.278672 -4.01436 0.364911 -0.0154076 -0.331025
22 1 1.54026 7.32431 -1.26982 0.529166 1.27637 -0.648244 5.791 -3.9325 -0.254245 -0.325906 0.584091
23 1 3.01689 5.92797 -2.74105 4.21453 0.286138 -0.65637 0.226131 -3.93389 -0.210439 0.183316 -0.257441
24 1 4.35552 7.36387 -1.1959 0.718611 1.41969 0.425215 0.111304 -3.95304 -0.40718 0.282076 0.17862
121 1 0.132435 5.82793 0.364847 -2.35864 3.10392 -0.471262 0.192353 -3.94495 0.01447 0.228325 -0.0830874
123 1 3.01618 5.86763 0.465145 1.00139 1.8653 -1.24788 0.262363 -3.99461 -0.208169 0.0601914 -0.162456
16 1 7.14135 4.5226 -1.11466 0.603539 0.154603 0.133915 0.162637 -3.97851 -0.167048 -0.215877 -0.0982689
25 1 5.70759 5.92495 -2.64595 -0.827089 1.1553 2.35682 5.03871 -4.02665 -0.0759819 -0.416781 -0.706016
26 1 7.1412 7.16975 -1.24808 -0.0337704 2.62343 0.778117 5.19305 -3.88435 0.325082 0.75426 0.276138
125 1 5.74127 5.95799 0.410469 -0.136011 -2.75282 -0.154075 0.138998 -4.08642 -0.0718233 0.242335 0.352324
127 1 8.57446 5.88387 0.267864 -1.51658 -3.67076 0.00771245 0.394236 -3.97004 0.187577 -0.284329 0.104051
18 1 10.0587 4.47472 -1.19435 2.01504 1.15568 0.108705 0.218416 -3.97758 -0.0479617 0.389331 0.145533
20 1 12.7939 4.54238 -1.22978 -0.022531 3.00342 -1.17168 0.0637152 -4.03071 0.25722 -0.0942048 0.193532
28 1 10.1169 7.35391 -1.1004 1.08986 -1.21663 1.80841 0.416726 -3.95353 -0.294151 -0.300048 -0.202981
29 1 11.4127 5.98723 -2.75134 1.3822 1.47477 -0.555896 0.054314 -4.01046 -0.130016 -0.636533 0.103176
30 1 12.8531 7.28188 -1.13032 0.362699 -0.519128 0.486825 0.138176 -4.0193 -0.389328 0.478562 0.0851438
129 1 11.3642 5.90889 0.417995 -0.995542 1.01394 2.2528 0.112696 -4.02829 0.269817 -0.0270144 0.00187969
32 1 1.48279 10.1923 -1.26716 2.66336 -1.18469 0.933482 0.240708 -4.06438 0.142622 -0.47699 0.371675
34 1 4.32744 10.195 -1.26619 -3.42019 -1.92301 1.41173 0.199427 -3.97849 -0.183565 -0.416295 0.502744
43 1 2.92107 11.628 -2.74648 2.17426 0.782241 3.50485 0.12181 -4.03869 0.0293611 -0.400919 -0.378101
133 1 2.87707 8.77788 0.400052 -1.44944 0.975575 0.710255 0.0927085 -3.92454 0.359043 -0.389908 -0.0390395
141 1 0.146359 11.6297 0.279392 -2.20193 -7.04944 -1.51669 0.333486 -4.03328 -0.177013 -0.0833339 0.465656
143 1 2.92416 11.521 0.375146 -0.572232 1.1909 1.77002 0.166927 -4.04407 -0.15799 0.0019389 -0.160729
36 1 7.17897 10.1662 -1.14601 0.10168 3.47717 0.174941 0.17162 -3.90054 -0.0749304 0.0857575 -0.164044
47 1 8.63625 11.4798 -2.66116 -1.46078 2.66256 0.234251 0.295166 -3.98347 -0.108144 -0.133836 -0.502082
135 1 5.71447 8.72482 0.480556 -0.880733 0.590278 -0.109653 5.71325 -3.94947 0.0870333 -0.0993714 -0.0412524
137 1 8.61908 8.74613 0.306758 -4.19951 1.4167 -2.48788 0.376571 -4.00249 -0.402298 0.0696786 -0.141333
145 1 5.78797 11.4174 0.377886 0.913579 -3.10787 0.676852 5.72202 -3.95509 0.016935 0.388699 0.361292
147 1 8.63173 11.5707 0.486424 -2.52053 -2.66134 -2.016 0.198002 -3.98875 -0.4953 0.27987 -0.81033
37 1 8.64539 8.6808 -2.62963 -0.410704 1.96136 0.795798 0.381266 -4.0403 -0.495626 0.532332 -0.0339068
41 1 14.1834 11.5242 -2.66531 -1.35835 -5.95404 3.83557 0.255573 -3.99587 -0.1366 0.52408 -0.0657132
131 1 14.189 8.78043 0.502637 -1.59748 2.05417 3.03081 0.422796 -3.91276 0.767344 -0.0337493 -0.0149095
38 1 10.1092 10.2499 -1.07366 0.647054 3.02786 -2.05404 0.499597 -3.99736 -0.456786 -0.40577 0.553267
39 1 11.3428 8.78317 -2.71473 2.80774 -0.622395 -1.00191 0.224239 -3.99467 0.622641 -0.271693 -0.109593
40 1 12.8549 10.1114 -1.05515 -1.75728 -0.634733 -0.267602 0.255783 -3.99679 -0.311207 -0.173828 -0.0731286
139 1 11.4119 8.69776 0.467027 -0.425376 2.4171 -0.0430739 0.112509 -4.03181 0.0136914 0.600936 -0.00781955
149 1 11.4267 11.5446 0.467961 -0.904464 -0.906018 0.248794 0.181147 -4.00019 0.0928867 0.0654458 -0.36573
49 1 11.351 11.4979 -2.68445 -3.94296 -1.72452 -3.57845 0.146454 -3.95157 0.287567 0.143822 -0.354665
42 1 1.60077 12.9976 -1.28466 -0.841826 -0.173751 0.753914 0.438872 -3.98443 -0.654891 0.227372 0.12574
44 1 4.30049 12.9516 -1.30077 -1.17519 0.372824 -0.13007 6.08005 -4.05326 0.285023 -0.163573 -0.0546279
52 1 1.58776 15.7356 -1.04117 -0.585983 1.26946 1.71295 5.19731 -3.86936 -0.765141 0.267365 -0.194601
54 1 4.38463 15.6552 -1.19944 0.269637 0.959657 1.9614 0.28036 -4.01694 -0.403198 0.341924 -0.419391
153 1 2.9946 14.2978 0.389069 -3.03426 -0.361765 3.65674 0.167813 -3.94031 -0.631293 -0.360885 0.0522147
46 1 7.13899 12.8477 -1.22554 -0.042375 -0.703018 -2.37022 5.25318 -3.95276 0.0291084 0.565375 0.125117
56 1 7.08452 15.7726 -1.28335 0.19616 0.505449 -1.21975 0.264897 -4.02274 0.210554 -0.48514 0.185746
155 1 5.76502 14.3443 0.328701 -0.699273 2.50818 -2.71856 0.104544 -3.98596 0.104528 -0.334306 0.392163
157 1 8.53251 14.4644 0.417886 1.77519 1.9958 -4.01974 5.20442 -3.99177 -0.186047 -0.490341 0.2326
57 1 8.49816 14.3386 -2.62099 5.27468 2.46447 0.151665 0.532527 -3.88479 0.0872023 0.0138614 -1.00906
51 1 14.0057 14.3518 -2.7697 5.08997 3.62125 -2.07853 4.92166 -3.8995 0.945265 -0.00173993 0.077742
151 1 14.2009 14.4155 0.397975 -4.71089 2.01634 -0.85659 0.127137 -3.9039 -0.313873 -0.222908 0.0676467
48 1 9.93985 13.0563 -1.17177 2.86016 2.34417 0.701272 5.20267 -3.97478 0.285858 -0.523908 -0.0236203
50 1 12.7181 12.9904 -1.17464 0.559624 -1.36974 -0.820506 0.184187 -3.98247 -0.273575 -0.0726516 0.375918
58 1 9.99316 15.7186 -1.19091 -3.3381 -1.51398 5.38263 0.178923 -4.01708 0.00991656 0.150328 -0.0153326
60 1 12.7967 15.7437 -1.18493 1.53771 1.90327 -4.70531 0.114117 -4.01534 -0.392826 0.124219 0.838626
159 1 11.3491 14.3264 0.45108 -0.265735 -1.65506 -3.98071 0.154598 -3.98853 0.17371 0.457263 -0.144511
62 1 1.43944 18.5161 -1.14727 0.272627 0.831543 -0.200207 0.117332 -3.94527 0.168414 0.398381 -0.117504
64 1 4.38586 18.6552 -1.14285 1.24428 1.0664 2.86252 5.33635 -3.94582 -0.562725 -0.75742 0.34787
163 1 2.94245 17.1558 0.277971 0.341627 2.40032 0.506019 0.410828 -3.96698 0.454646 0.386009 0.00439006
171 1 0.141802 19.9783 0.490493 -0.0590841 -1.37942 4.27312 0.177177 -4.05156 -0.518673 -0.220176 -0.225626
173 1 2.89555 19.9823 0.365802 0.785649 -1.23368 2.3689 0.149857 -4.02425 -0.301064 -0.0263637 0.602629
66 1 7.24355 18.6165 -1.14367 2.75597 -4.35103 0.905848 5.62471 -4.05095 -0.64505 0.19952 0.110512
67 1 8.57677 17.1461 -2.74462 -4.30079 -3.56988 1.31798 0.0495927 -4.06675 -0.475007 -0.350214 0.257771
165 1 5.78304 17.093 0.319156 1.97311 1.99329 -0.167527 0.245115 -3.96859 -0.0609938 0.412824 -0.00820394
167 1 8.56005 17.078 0.262984 1.63712 1.01306 -0.622391 4.7857 -4.02112 -0.142733 0.08324 0.462877
175 1 5.70632 20.007 0.393117 -3.42076 -2.85137 2.01629 0.136707 -3.97698 0.423201 0.177725 0.249614
177 1 8.58858 20.043 0.609483 -1.05917 0.80188 -0.731301 1.03765 -3.95006 0.20769 -0.149133 -0.804319
75 1 5.71713 19.9361 -2.76021 -4.53949 -0.9021 2.29786 0.133523 -3.9781 -0.0743518 -0.155031 -0.602408
65 1 5.67248 17.193 -2.72008 -1.31158 -3.63153 -0.620776 0.339872 -4.01917 0.0485445 0.102671 -0.100639
161 1 14.1852 17.2046 0.495999 -8.06951 -0.86164 0.0732044 0.223124 -4.05141 -0.310111 0.275633 -0.425659
68 1 9.83757 18.5862 -1.11593 1.01621 0.95189 3.77626 5.40442 -4.02149 0.429597 0.56517 0.120368
70 1 12.7582 18.5098 -1.15852 -2.75978 -0.241021 0.901339 0.158705 -3.9035 0.239149 0.35196 -0.401667
169 1 11.4357 17.1907 0.382015 -0.050047 0.778513 1.36961 0.112437 -3.96784 -0.274942 0.20225 0.209694
179 1 11.4548 19.9395 0.471922 0.478562 4.61523 -0.247094 0.252875 -4.00696 -0.302204 0.217866 -0.476296
69 1 11.3235 17.1806 -2.65884 2.51938 -0.439877 2.89062 0.225096 -3.97204 0.337423 -0.575131 -0.18628
71 1 14.189 20.001 -2.65183 -3.02828 1.71166 0.793185 0.311256 -3.86677 -0.399211 -0.607608 0.0371155
61 1 14.2026 17.0274 -2.69425 -2.79754 0.110739 5.17862 0.302626 -3.93054 0.403575 0.380881 0.0144425
72 1 1.54936 21.3951 -1.24552 2.3338 -3.4761 -2.56089 0.179286 -4.05014 0.0759122 -0.0587242 -0.373023
74 1 4.24289 21.3195 -1.10922 -0.775897 2.76848 -0.309503 0.379256 -4.11292 0.283486 0.239102 -0.185589
82 1 1.5098 24.075 -1.32173 -0.197856 1.54937 -4.05427 0.298969 -4.02976 -0.385661 0.392906 -0.327633
84 1 4.24694 24.1216 -1.16777 1.75243 2.83472 -4.12876 0.401444 -3.9438 0.435656 0.598764 -0.0912324
181 1 0.128659 22.763 0.327938 -3.03311 -1.67311 -0.629939 0.0479871 -4.02748 -0.26627 -0.623727 -0.433956
183 1 2.89382 22.7594 0.283393 0.572942 -1.11899 -0.365379 0.167922 -4.06283 0.0859316 0.434269 0.684678
76 1 7.14056 21.2635 -1.19528 -0.691281 0.193514 1.05787 5.40466 -3.8734 0.145334 0.936347 0.449556
86 1 7.25436 24.2668 -1.19252 -2.43118 3.29649 -1.15762 5.73712 -3.87902 -0.178898 -0.605111 -0.0882294
185 1 5.72509 22.8979 0.288711 3.67767 -2.14848 -3.35625 0.476391 -4.00769 0.346602 -0.849465 0.223675
187 1 8.47118 22.692 0.468417 -0.732136 -0.532565 -1.73565 5.24628 -3.98454 0.16861 -0.0337285 -0.0649197
78 1 9.92402 21.3232 -1.25348 -2.14879 -1.2859 1.20999 0.228694 -3.99495 -0.0653907 0.0913861 0.945131
80 1 12.7264 21.3466 -1.17488 -2.02506 0.894117 1.33119 0.0649531 -3.94818 0.314141 0.380133 0.0813648
88 1 9.99398 24.1702 -1.14978 -1.34963 2.3224 -3.76156 0.209527 -3.97945 -0.182375 0.216781 0.235482
90 1 12.8226 24.1983 -1.28817 -3.32555 -1.34099 0.789537 0.184646 -3.93624 -0.844109 -0.335788 0.03742
189 1 11.404 22.6532 0.308986 1.1462 2.87937 3.03823 0.291585 -3.90585 0.518498 0.667336 -0.0488063
92 1 1.49183 27.0716 -1.20648 -1.55268 0.823337 -0.21304 0.0695098 -3.94789 -0.0583046 -0.218269 0.323651
93 1 2.95679 25.6072 -2.74957 -2.98218 -1.24306 2.03838 0.174751 -3.96498 0.150906 0.253765 -0.358162
94 1 4.31233 27.0701 -1.04092 -2.42482 -0.468398 -1.32983 0.700966 -3.93817 -0.0887374 0.0627725 -0.554916
193 1 2.87926 25.4829 0.298905 -1.0862 0.475835 1.41936 0.419585 -3.94103 0.160978 0.52032 -0.174928
5 1 5.72241 28.2956 -2.68569 2.69086 -0.906142 0.0342517 5.124 -3.98104 -0.324317 0.514986 -0.406288
107 1 8.62684 28.3911 0.411224 1.62718 -2.83475 -3.52836 0.300479 -4.04532 0.0262371 1.04132 -0.206249
96 1 7.19496 27.0059 -1.20415 3.8854 -2.09663 -3.2721 0.0390824 -4.03815 0.0509228 -0.0143322 0.362326
195 1 5.7699 25.6353 0.314643 -1.7019 -1.17403 1.74296 0.137753 -3.91992 0.0912263 0.262434 0.606509
197 1 8.65402 25.6862 0.369964 -0.592902 -0.620959 0.00800132 0.325045 -4.03566 -0.251074 -0.122998 -0.109686
7 1 8.51249 28.4072 -2.6636 0.305773 -1.36188 3.04787 0.350094 -3.97235 0.0921658 0.184639 -0.72487
191 1 14.1954 25.5315 0.324309 -0.0885336 -4.4938 -0.48509 0.208636 -3.90928 0.376896 0.326284 -0.922641
98 1 9.85719 27.0277 -1.25051 2.60699 4.64685 0.62246 5.52786 -4.07654 0.636181 0.130308 -0.00444005
100 1 12.8111 27.1397 -1.19302 0.688756 2.41483 -3.36628 0.111251 -3.96507 -0.271447 -0.424692 -0.272948
199 1 11.3947 25.7747 0.371614 -1.77748 -0.753815 0.440887 0.585904 -3.92088 0.474109 -0.643645 -0.293927
99 1 11.3966 25.6653 -2.70484 -3.11862 -0.640777 0.494149 0.141729 -3.99917 0.0609902 -0.361557 0.317974
102 1 1.43258 1.58866 1.97232 7.38627 -3.29026 1.48818 0.297663 -4.03952 0.345299 0.107864 0.220279
104 1 4.40471 1.70471 1.87833 -2.62904 -0.431866 -2.50035 0.233763 -3.96131 -0.840707 0.0701645 -0.64535
202 1 1.64591 1.56967 4.96739 2.02744 3.5456 -1.59179 4.66985 -4.03561 -0.47457 0.595107 -0.0528241
203 1 2.94499 0.259696 3.47142 -1.3304 -3.48688 0.0854903 0.129997 -4.05248 0.0374257 0.178253 -0.212117
204 1 4.18458 1.68524 5.05197 -0.935437 1.48785 2.63114 4.60011 -3.99717 0.809072 -0.172104 -0.233297
213 1 2.88677 3.08084 3.43574 -2.28947 -0.845795 -1.07431 0.360036 -4.02161 -0.239353 -0.189558 -0.307571
106 1 7.15632 1.63052 1.86263 0.736671 -1.16949 0.0239501 0.247291 -4.06129 0.213859 0.561967 0.87142
205 1 5.64874 0.299036 3.33139 2.33469 0.995414 0.291621 4.6967 -3.91363 0.339711 -0.222789 0.628874
206 1 7.2548 1.68985 5.01186 -1.46106 -1.55409 1.7364 4.84725 -3.95647 -0.248508 -0.797737 -0.389289
207 1 8.58474 0.236208 3.55039 1.31666 3.04051 1.49325 0.154675 -3.96556 0.155149 0.143772 -0.558817
215 1 5.78167 2.95842 3.60493 -1.49422 -2.50707 3.51511 0.53155 -3.96862 -0.424284 0.339508 -0.160473
217 1 8.60442 3.0921 3.49553 -1.80041 2.92479 -5.24384 0.122703 -4.02404 -0.51172 -0.225075 0.0444141
201 1 14.2143 0.277593 3.55417 -0.76465 1.66164 -3.30675 0.324151 -4.01056 -0.0875098 -0.114566 -0.162288
211 1 14.1953 3.09372 3.61025 0.131749 -3.47244 0.658656 0.278597 -3.95169 0.200653 -0.318312 0.163484
108 1 9.98023 1.81548 1.99479 1.78008 -0.0382443 0.481447 5.65676 -3.90692 0.0355695 -0.951783 0.171933
110 1 12.7567 1.63776 1.90113 0.143622 0.261967 0.471904 0.163277 -3.89143 0.498812 -0.134224 0.591561
219 1 11.4042 3.08595 3.52131 2.96876 -3.6 -0.306264 0.0661798 -3.94435 0.0119954 0.0719332 -0.100302
112 1 1.47335 4.44722 2.05922 -2.08488 5.53109 1.88305 0.246473 -3.95424 -0.110905 0.508587 0.0331758
114 1 4.45714 4.53943 2.07211 0.408107 -1.46821 1.68028 5.21527 -4.02717 0.0858662 -0.367269 -0.129908
122 1 1.5387 7.19477 2.02512 -2.178 2.10286 -1.52883 0.26771 -3.89048 -0.522037 -0.0923831 -0.303714
124 1 4.30599 7.3213 2.00159 -1.70609 -0.894295 0.386355 0.159854 -3.94728 0.285663 0.405287 0.0455109
223 1 3.00176 5.86832 3.56227 -2.9209 -3.41332 -1.19244 0.120258 -4.01458 -0.0347484 -0.137449 0.317816
116 1 7.08446 4.43511 2.00203 -0.717838 -0.661302 1.69127 5.32161 -4.00228 0.419861 0.398582 -0.121692
126 1 7.33953 7.39572 1.98021 1.37971 -3.46356 0.697126 0.498982 -3.89444 -0.59446 -0.104487 -0.263301
216 1 7.15048 4.45322 4.96886 0.663868 1.20315 1.59813 0.349871 -4.05158 0.0945615 0.749317 0.18636
225 1 5.7941 6.05956 3.47403 0.299468 -1.75276 -1.18853 5.61311 -3.96084 -0.178092 -0.34109 -0.022569
227 1 8.61587 5.8789 3.48085 -0.532809 -0.371899 0.126652 0.1375 -3.97329 -0.125097 -0.12161 -0.0210933
221 1 14.1524 5.86373 3.57685 0.796103 -1.93786 -0.0692733 0.131075 -4.00504 -0.197869 0.436853 -0.475916
118 1 10.0291 4.4796 1.96367 -2.00022 0.251406 -1.34662 0.105424 -4.05141 0.0345215 0.080131 -0.525721
120 1 12.7727 4.51546 1.89749 -2.93314 -0.0391201 0.674702 0.118668 -4.00995 -0.0975631 -0.362206 0.105346
128 1 10.0124 7.32217 1.91324 -2.7644 2.28321 3.1472 0.134697 -4.03605 -0.347264 0.203225 0.187411
130 1 12.7448 7.26336 1.91936 -1.8326 -3.86476 -3.53257 0.168475 -4.02497 0.422803 0.0765983 0.405382
218 1 9.92391 4.44006 5.08536 2.54663 2.02038 1.45237 0.0892287 -4.0313 0.0188077 -0.174823 -0.0201076
220 1 12.7806 4.44772 5.07686 -0.879614 -1.25736 1.20844 0.0649183 -3.90228 -0.356939 0.153041 0.157629
229 1 11.2652 5.91426 3.55592 0.58398 1.74186 -1.1864 0.30386 -4.02244 1.17287 0.107505 -0.160039
230 1 12.8446 7.35538 4.99936 2.31232 0.678649 1.21522 0.279653 -3.98066 -0.281123 -0.523044 0.205685
132 1 1.49806 10.2454 1.8782 0.926583 1.77752 2.20689 0.206618 -3.97511 -0.117107 -0.191154 0.427085
134 1 4.33421 10.2257 2.02017 -1.95039 -2.01599 -1.69927 5.45273 -3.94616 -0.0299005 -0.575136 0.0977804
233 1 2.86938 8.7146 3.57953 -0.683116 0.194601 5.31636 0.147565 -3.90795 0.597499 -0.00536412 -0.408037
234 1 4.30212 10.2221 5.08322 -0.621179 0.157015 -0.123602 5.48086 -3.97763 0.289139 -0.550751 0.145892
241 1 0.149986 11.5192 3.47551 -2.41095 0.904273 -0.0212207 0.0945952 -4.01531 -0.1376 -0.121252 0.0190954
243 1 2.87755 11.525 3.42084 -0.234391 0.744033 0.670144 0.25654 -3.98642 -0.152425 0.0877059 0.243874
136 1 7.34978 10.1327 1.99673 0.629619 0.98562 1.20116 5.04594 -4.04203 -0.543195 0.0137896 -0.0313167
235 1 5.87066 8.81598 3.44566 0.465343 -1.43871 1.4062 0.392967 -3.99254 -0.698152 -0.807788 0.222952
237 1 8.63235 8.75913 3.67682 2.56455 0.935182 0.542097 0.390055 -4.0795 -0.296342 -0.10565 -0.657256
245 1 5.87987 11.5851 3.51267 0.240801 -0.541356 -0.243051 0.425182 -3.98316 -0.375306 -0.0120013 0.201351
247 1 8.6244 11.498 3.62595 0.432483 -3.51449 2.45946 0.203573 -4.06425 0.153822 0.723211 0.246552
231 1 14.2058 8.74973 3.47444 -0.187028 1.52542 1.17023 0.0874674 -4.02793 0.311417 -0.174041 -0.210356
138 1 9.92992 10.142 1.92721 -1.64946 -2.47072 4.24093 5.29927 -4.07652 0.993178 -0.464987 0.477946
140 1 12.8378 10.2224 1.93569 -3.06779 0.590986 0.953237 0.199227 -4.0384 -0.261398 -0.0665296 0.348717
239 1 11.364 8.67474 3.48209 1.07823 -1.10089 5.00007 0.101796 -4.02505 0.295374 0.0561174 -0.381459
240 1 12.788 10.0949 4.92668 0.473313 1.12475 -2.36237 0.399064 -3.92441 0.376175 0.730256 0.967878
249 1 11.3994 11.5636 3.61475 0.00818624 4.09037 -1.73351 0.26139 -4.01071 -0.248518 -0.249045 0.0683834
142 1 1.52181 13.0509 2.04248 -1.28477 -4.17543 2.9049 0.366081 -4.02353 -0.257638 0.164354 -0.0221105
144 1 4.29805 12.8216 1.86743 1.81958 -2.20134 0.0142737 4.94079 -3.96875 0.314313 0.579883 0.361654
152 1 1.51339 15.8576 2.01729 -0.669006 2.84052 -0.820189 5.4081 -4.08569 0.69552 -0.711908 -0.204146
154 1 4.25725 15.7179 1.9275 2.46855 -1.35996 -1.82568 0.309478 -3.97482 0.395628 0.512515 -0.459457
242 1 1.53992 12.9165 5.05103 0.280113 3.4737 -1.1283 0.125637 -4.04109 0.268841 0.231175 -0.130303
244 1 4.24982 12.7782 5.07906 2.14938 -0.0921022 -0.749942 5.40727 -3.98657 0.450794 0.474149 -0.398793
251 1 0.128475 14.4623 3.5793 2.68999 -0.1114 0.508103 0.230922 -3.9784 0.0401539 0.00217667 -0.162434
252 1 1.63436 15.7834 4.95881 -3.12021 0.366244 0.726554 4.68256 -3.94202 -0.295473 -0.324715 0.2035
253 1 3.02926 14.3678 3.55273 0.643288 -2.70259 -2.00417 0.363438 -3.96921 0.0953155 -0.181871 -0.229133
146 1 7.13468 12.9886 1.94263 1.04428 0.1527 -2.62964 0.133205 -3.86182 0.88678 -0.196487 -0.107948
156 1 7.1141 15.8395 1.97098 -5.45427 -4.00032 2.42238 0.298995 -3.99172 -0.116607 -0.0709001 0.107861
255 1 5.79332 14.3612 3.46546 0.949383 2.2935 -3.25327 0.184203 -3.9826 -0.731188 0.297019 0.365844
256 1 7.19239 15.8423 4.98159 -0.861153 0.781607 -0.146585 0.394817 -4.02298 0.588483 -0.268452 0.247288
257 1 8.60857 14.4287 3.57006 -2.00567 3.54744 2.76289 0.0754053 -3.97181 -0.4927 -0.75862 -0.259176
148 1 10.0789 12.8625 2.0451 2.53119 -0.204599 1.59625 5.27846 -3.95387 -0.607845 0.596763 0.136238
150 1 12.8144 12.9078 2.00944 0.842405 -1.04171 -0.584461 0.16248 -4.05015 0.423239 -0.0383108 -0.117659
158 1 10.0599 15.8093 2.02717 1.95172 -4.28031 -2.67566 0.264648 -3.93897 0.0937727 -0.254545 0.0118441
160 1 12.7974 15.8078 1.92248 2.05154 2.79304 -0.0709358 0.203032 -3.98314 0.170331 -0.451504 0.602958
250 1 12.9049 12.9601 5.0292 1.45982 -1.9964 -1.75047 0.275794 -4.0177 -0.326947 -0.495219 0.0981106
259 1 11.5154 14.2983 3.51104 2.36546 0.76793 -0.871017 0.269432 -4.01859 -0.770184 0.593074 -0.175084
162 1 1.61205 18.4318 1.95605 0.103087 0.473685 0.329909 5.13179 -3.98883 -0.32797 0.532804 -0.105605
164 1 4.41893 18.6151 1.83668 -0.211573 3.22505 -5.20284 0.359888 -3.98827 -0.320349 -0.494612 0.0739986
262 1 1.64124 18.6991 5.0672 -1.57751 0.894061 -4.43727 5.13826 -4.01677 -0.963362 -0.750611 0.121172
263 1 3.02324 17.1738 3.49708 -2.37006 -0.133771 0.32695 0.271808 -4.02808 -0.0852607 0.280114 0.154195
271 1 0.239882 19.931 3.40116 -2.9132 -1.24747 -1.34561 0.614291 -4.00466 -0.468657 -0.23571 0.243084
273 1 3.06119 20.0027 3.5139 0.40391 -0.0741893 3.19324 5.52069 -3.99484 -0.311359 0.0181964 -0.292816
166 1 7.16241 18.5363 1.93691 0.698547 0.150344 -2.49931 0.187289 -4.02942 -0.249051 -0.117438 0.171801
265 1 5.71847 17.1429 3.63862 -1.6126 -0.82668 -3.54668 0.460119 -4.005 -0.15236 -0.0793731 0.0407141
266 1 7.25348 18.553 4.98289 1.95445 3.37989 -0.145865 5.04301 -3.92488 -0.468583 0.185306 0.210175
267 1 8.63962 17.1234 3.43579 1.62128 1.24999 -1.44411 0.273706 -3.97132 -0.196129 0.550085 0.440687
275 1 5.66392 19.9514 3.52046 0.0670137 -1.38317 -3.87798 5.20438 -3.99498 0.221148 0.262553 0.509543
277 1 8.52362 20.0544 3.50929 0.898333 -0.0775842 -0.479706 0.260342 -4.02268 0.553569 0.0141995 0.297837
261 1 14.1769 17.1487 3.59374 3.22524 -0.724689 1.23685 0.360447 -4.035 0.0789011 0.475791 -0.122154
168 1 9.9888 18.5753 1.98155 -3.61858 0.233632 -1.83299 0.21849 -3.9558 -0.330984 -0.254527 0.273989
170 1 12.8038 18.6463 2.09199 0.900172 4.64776 -2.52583 0.344846 -4.02543 0.310719 -0.412059 0.212507
269 1 11.4148 17.1891 3.70409 1.22914 3.37173 -1.05524 0.415278 -3.98743 0.577484 0.580488 -0.977489
270 1 12.909 18.7314 5.07268 -1.75346 -1.91228 -0.862528 5.43173 -3.9648 -0.421547 -0.200807 0.573824
279 1 11.3598 20.0486 3.4865 2.0114 -4.45816 0.994583 0.276467 -3.93823 -0.625975 0.115974 0.202966
172 1 1.47279 21.4257 1.98478 2.33301 -0.225112 2.95214 0.282016 -4.00434 0.650377 0.055315 -0.222942
174 1 4.32705 21.4567 1.82517 -1.27528 -0.710527 -1.51037 0.285018 -4.01085 -0.0207228 -0.213946 -0.103886
182 1 1.5749 24.1646 1.93521 -0.784188 -3.79054 -2.16947 0.0654395 -4.02388 -0.808803 0.0331103 0.337367
184 1 4.3073 24.238 1.89077 -0.587332 0.565944 -1.32797 0.146292 -4.00167 0.108422 -0.682766 -0.46547
272 1 1.50093 21.4332 4.98896 -1.3891 0.701157 2.48604 0.386553 -4.058 0.0549875 0.0065098 0.207303
281 1 0.183488 22.7914 3.57614 -2.74019 0.616667 0.622568 0.164178 -3.95098 -0.374449 0.539624 -0.12109
283 1 2.92311 22.8102 3.59464 1.18139 2.06881 4.32688 0.186489 -3.94003 0.86959 -0.258955 -0.122855
176 1 7.06694 21.3141 2.00633 -3.95137 -1.5893 -1.01736 0.39801 -4.0148 0.266301 0.23541 -0.232801
186 1 7.17879 24.1447 1.83911 2.78581 2.06017 1.88695 0.197666 -3.91807 -0.113717 0.458117 0.156983
285 1 5.85589 22.7635 3.38001 1.31531 1.02106 -0.50399 0.564845 -3.93621 -0.542036 0.901886 0.86343
287 1 8.6565 22.7436 3.42774 2.42 3.87829 -0.705154 4.93338 -4.09837 -0.663877 0.251404 0.550937
178 1 9.99102 21.4199 1.89568 -1.13098 -1.50552 3.15931 0.254367 -4.03956 0.462587 0.0640765 -0.165051
180 1 12.8404 21.4228 2.0332 -0.471497 0.0061306 0.269058 0.308641 -4.11668 0.270779 0.492037 0.222071
188 1 10.0407 24.0693 1.78579 -1.30348 -2.27273 0.479064 4.83614 -3.90705 -0.269437 0.906013 -0.329315
190 1 12.925 24.1389 1.90634 -1.55903 -2.12372 1.13416 5.5949 -3.89986 -0.719693 0.457201 0.331624
280 1 12.8739 21.3633 5.00355 1.61778 1.13426 1.57654 5.63252 -4.03657 -0.131212 0.303504 -0.161916
289 1 11.3072 22.8471 3.51486 -3.96248 4.07387 -0.259648 0.497593 -4.02109 0.234048 0.0374515 0.359126
290 1 12.8777 24.1232 5.06161 1.06046 -1.98762 3.24564 0.240038 -4.0162 -0.372966 0.120417 0.327355
192 1 1.54582 26.9795 1.96924 0.832332 -0.820942 0.130328 0.150474 -4.03373 -0.253677 0.259563 -0.270469
194 1 4.33343 27.1078 1.90984 -1.61671 -3.20912 1.28134 0.253701 -3.98165 0.132163 -0.28261 -0.540116
291 1 0.123486 25.6243 3.63658 -1.91934 -0.395923 -0.219087 0.40259 -3.9491 -0.158726 -0.33697 -0.4771
292 1 1.58125 27.1181 4.97398 0.521729 -0.104332 -0.21211 0.282406 -4.04668 0.167084 -0.794509 -0.152442
293 1 3.0799 25.6086 3.48588 2.80973 1.17343 -0.298043 5.85498 -3.93027 -0.484739 -0.0955833 0.579254
294 1 4.2495 27.1204 5.05389 -1.17778 2.9951 1.58236 0.254711 -3.97521 0.605447 0.090916 -0.435331
196 1 7.3038 27.0489 2.0566 3.37805 -2.98627 4.17109 4.89503 -3.94158 -0.788601 -0.0030752 -0.435735
295 1 5.73558 25.636 3.46428 2.43808 0.681994 -1.51506 0.163802 -3.99468 0.496986 0.0399337 -0.0884554
296 1 7.17419 27.0665 4.96345 0.309675 6.50899 -1.89168 0.257405 -3.92079 -0.154109 0.622918 -0.249385
297 1 8.56397 25.5256 3.51241 -0.134748 1.31643 -3.31811 0.356448 -3.98663 1.1325 -0.155535 -0.117554
209 1 11.3537 28.3011 3.58182 -0.393176 -1.47754 0.78913 5.90373 -3.87453 0.181123 0.59983 -0.485032
198 1 9.95313 27.0869 1.84563 0.689763 -0.698924 -1.31982 5.15498 -3.86332 0.396963 -0.0676904 1.00123
200 1 13.0099 27.0067 1.90146 5.30296 -0.270392 0.651806 5.5192 -3.91914 -0.618719 0.100121 0.230142
299 1 11.357 25.6421 3.55651 0.613569 6.18239 1.53807 6.24419 -3.88589 0.0298625 0.119475 -0.32219
301 1 0.190771 0.330155 6.51723 0.5675 -0.168496 -2.46061 4.92702 -4.05096 0.0934076 -0.235472 0.128867
302 1 1.52998 1.64637 8.35584 -1.42736 -3.15682 0.972455 0.31078 -4.00365 0.154145 -0.00194137 0.121932
303 1 2.87995 0.257353 6.67673 0.341516 -0.0404191 -2.60214 0.187516 -4.0482 0.104703 -0.34272 0.383303
304 1 4.29008 1.6221 8.19134 -4.04083 -0.468429 4.02966 0.157757 -3.93908 -0.0363525 0.63031 0.252916
311 1 0.149724 2.85167 6.66813 -1.74976 0.28104 0.763369 5.21588 -3.92343 0.136042 1.41457 -0.596574
313 1 2.89377 2.99568 6.55064 0.148637 -0.416692 -0.495992 0.360694 -3.9201 -0.111397 0.42353 0.417456
305 1 5.63949 0.272746 6.67226 -2.6762 0.601797 -1.53878 5.07873 -3.8817 1.0694 0.224002 -0.239061
306 1 7.16827 1.7968 8.22177 -0.497955 1.38302 -0.554626 5.79705 -3.90718 -0.151308 -0.826117 0.357707
307 1 8.54451 0.339894 6.71825 2.06573 -1.47317 -0.377265 0.330555 -4.00902 -0.534087 -0.575113 0.0483735
315 1 5.88369 2.98404 6.58558 0.746495 3.22544 0.384377 5.2788 -4.00111 -0.589552 0.27838 0.418798
317 1 8.5575 3.091 6.5869 0.877774 1.33708 0.284955 0.077197 -4.12121 -0.40604 -0.0436403 0.253926
208 1 9.93587 1.5992 5.10436 -2.11946 3.54369 -4.60115 0.124557 -4.09044 0.33572 0.123825 0.160973
210 1 12.7168 1.62492 5.13378 1.93469 -2.84729 3.21644 0.35879 -3.96109 -0.293168 0.232015 -0.339971
308 1 9.85407 1.73124 8.17692 -3.32365 0.641461 0.348771 0.207684 -3.98804 0.477803 -0.664465 -0.295197
309 1 11.427 0.271834 6.71608 2.261 -0.338001 1.59023 0.154207 -3.97814 -0.52171 0.117703 0.0585127
310 1 12.8338 1.67333 8.19896 -2.12593 2.9352 -1.91821 0.172924 -3.96774 -0.379981 -0.460541 -0.0934274
319 1 11.2832 3.0542 6.67605 1.40137 -1.12676 -0.599603 0.110008 -4.0256 0.78855 -0.180048 -0.315744
212 1 1.5107 4.56417 5.11076 1.71349 1.1107 -0.37813 5.44365 -4.01257 0.451943 -0.30063 0.0827363
214 1 4.35594 4.34938 5.12956 -3.60792 0.888428 1.10906 4.95764 -3.9759 -0.102491 0.262129 -0.496815
222 1 1.54559 7.23945 5.0885 2.60978 -1.28947 -2.65909 0.158512 -4.0252 0.0112114 -0.0515312 -0.0584155
224 1 4.45542 7.31972 5.12574 2.28078 -2.16034 3.83898 0.303208 -3.96473 -0.929948 0.492466 -0.315013
312 1 1.51633 4.46751 8.15306 6.58074 -1.87872 -2.48992 0.250469 -4.00473 0.385754 0.122234 0.138759
314 1 4.38482 4.47065 8.27213 1.38421 -0.500902 1.94911 0.160982 -3.91757 0.14795 -0.28313 -0.151623
322 1 1.50912 7.24612 8.13877 2.77664 -2.04083 2.3912 0.112357 -3.98488 -0.315966 -0.375517 0.146708
323 1 3.05231 5.91185 6.60012 -1.31866 2.39502 -0.268551 0.265412 -3.97722 -0.347166 0.0982679 -0.118776
324 1 4.3708 7.29584 8.16741 1.4459 0.563605 -1.51929 0.128817 -4.00498 0.199157 -0.0909279 0.13675
226 1 7.22143 7.27669 5.09138 -1.92098 2.73055 -2.00716 0.112005 -4.03933 0.154616 -0.165116 0.288491
316 1 7.10763 4.57462 8.20685 2.31643 -3.52172 -0.258836 0.360211 -4.02377 -0.0014652 -1.05856 0.106682
325 1 5.76431 5.8264 6.54044 -2.43851 2.57701 -2.10025 0.261417 -3.99471 0.206868 -0.0850641 0.124271
326 1 7.19795 7.24786 8.11732 -1.71798 -0.00966545 0.572563 0.265608 -4.0507 -0.553384 0.781094 -0.340875
327 1 8.55272 5.78657 6.74881 -1.12912 -0.410511 1.0442 0.538636 -3.98389 0.252467 0.1559 -0.365168
228 1 9.92162 7.27115 5.1732 0.0778168 -0.255412 1.79302 0.265146 -4.00985 0.283746 -0.0458389 0.313517
321 1 14.1448 5.82456 6.64044 4.06995 0.134137 -0.309495 0.200359 -3.98117 0.193562 0.126 -0.0683825
318 1 9.98504 4.43593 8.1714 1.75132 -4.65897 3.2673 0.0890671 -4.01879 -0.0371276 0.623844 0.0709744
320 1 12.7757 4.48205 8.17838 1.89733 -3.11783 2.82706 0.187934 -3.95512 0.0329435 -0.999113 0.000746962
328 1 10.0129 7.28399 8.05003 2.65819 -0.927283 -2.4793 0.511637 -3.9846 -0.0629743 0.399926 0.223424
329 1 11.4291 5.87426 6.62272 1.9858 -1.38951 -0.786356 0.0743766 -4.00398 0.252595 0.198819 -0.580168
330 1 12.8425 7.28945 8.20034 -1.97867 0.420953 -1.07444 0.0954483 -4.06316 -0.00977282 0.081059 0.477515
232 1 1.56015 10.1641 5.10555 2.12226 0.0705619 -0.681687 0.21722 -4.03545 -0.295595 -0.211125 -0.178739
332 1 1.46321 10.1244 8.2343 1.59487 2.03124 0.780371 0.279139 -4.00522 -0.211797 -0.0352317 0.188543