ITEM: TIMESTEP
58250
ITEM: NUMBER OF ATOMS
2000
ITEM: BOX BOUNDS pp pp pp
1.0838953229856951e-01 1.4221610467701321e+01
2.1677906459713903e-01 2.8443220935402643e+01
-1.2106321097801427e+00 5.8530632109779702e+01
ITEM: ATOMS id type x y z vx vy vz c_csym c_peratom fx fy fz
2 1 1.62332 1.66863 0.290531 -0.282889 -3.25185 -0.636516 0.277891 -4.07198 -0.667563 -0.24918 -0.447079
4 1 4.35789 1.61575 0.21801 0.990702 -5.33602 3.45801 0.226877 -4.10306 0.321207 0.0574979 0.797111
11 1 0.115605 3.14255 -1.16238 0.617832 -0.194419 3.50607 0.21403 -4.02664 -0.405848 -0.357616 -0.136708
101 1 0.126621 0.284403 1.74918 -1.57173 1.46596 2.1275 0.151996 -4.08566 0.0736705 0.204868 -0.0327445
103 1 2.85007 0.270771 1.80908 0.287695 0.367304 -1.8153 0.240009 -3.97349 0.700217 0.123975 -0.207221
111 1 0.168447 3.08626 1.77577 -2.2925 0.592843 0.179022 0.131475 -4.10351 -0.349527 0.15702 -0.473372
113 1 2.87763 3.13123 1.83154 -1.71434 2.42111 -1.1208 0.330465 -4.04631 0.0144329 0.177585 -0.185666
13 1 2.94284 3.10367 -1.19152 -0.0706192 -1.95523 0.774801 0.0727153 -3.99559 -0.425677 -0.0201089 0.115714
6 1 7.17995 1.58532 0.283741 -1.53139 -1.81767 -2.43971 0.227244 -4.06731 -0.0740313 0.806293 0.0548438
17 1 8.63608 3.25517 -1.14108 -1.24355 -0.0988133 -0.860341 5.0079 -4.04088 -0.4391 -0.991576 0.0286291
105 1 5.90739 0.22905 1.77723 0.812795 -1.48127 -4.16198 0.294325 -4.05681 -0.473589 -0.143222 0.0262161
115 1 5.79048 3.13764 1.76242 -0.932742 0.818202 0.0439582 0.181046 -4.02533 -0.39495 -0.256969 0.255477
117 1 8.60233 3.08029 1.84317 0.475293 0.415756 -1.302 0.162735 -4.03228 -0.443104 -0.0909223 -1.04481
15 1 5.86915 3.09703 -1.15323 -1.1078 -3.23994 -0.243916 0.292046 -3.97963 -0.258752 0.411886 -0.256475
8 1 9.98472 1.71462 0.167886 1.02028 2.64764 -1.65962 0.390013 -4.02939 -0.609804 0.0240326 1.23542
9 1 11.3244 0.287262 -1.10978 -0.628437 1.37052 0.162777 0.394009 -4.02607 0.946247 -0.201692 -0.402281
10 1 12.8557 1.68831 0.218542 -0.261261 2.58464 0.684826 0.134396 -4.00685 -0.307613 0.135614 0.262534
109 1 11.3921 0.306018 1.74718 4.17545 -4.26001 3.01885 0.168136 -4.04911 -0.0207629 -0.523398 0.139511
119 1 11.4562 3.11085 1.69285 -0.877516 0.612354 1.13148 0.152795 -4.08242 -0.275025 -0.206801 -0.182489
12 1 1.52356 4.6359 0.187853 1.18436 1.40208 1.05812 0.568894 -4.0263 0.145418 -0.568329 0.109792
14 1 4.34915 4.42365 0.383918 -0.761965 1.11821 -1.53086 0.272111 -4.07763 0.276935 -0.00863622 -0.556229
22 1 1.54026 7.32431 0.215251 0.529166 1.27637 -0.648244 0.243753 -4.00797 0.13177 -0.00646873 0.778428
23 1 3.01689 5.92797 -1.18298 4.21453 0.286138 -0.65637 0.22291 -4.01055 -0.129983 -0.319239 -0.445909
24 1 4.35552 7.36387 0.285499 0.718611 1.41969 0.425215 0.1071 -4.00824 -0.52193 0.0279065 0.146214
121 1 0.132435 5.82793 1.76881 -2.35864 3.10392 -0.471262 0.185939 -4.01223 0.0136597 0.37356 -0.276661
123 1 3.01618 5.86763 1.86413 1.00139 1.8653 -1.24788 0.255341 -4.09223 -0.121025 0.18916 -0.359548
16 1 7.14135 4.5226 0.362705 0.603539 0.154603 0.133915 0.154305 -4.03592 -0.0709553 0.0170504 -0.296813
25 1 5.70759 5.92495 -1.0926 -0.827089 1.1553 2.35682 0.320607 -4.11058 -0.134664 -0.41423 -0.525586
26 1 7.1412 7.16975 0.23591 -0.0337704 2.62343 0.778117 4.99117 -3.92527 0.0399902 1.18322 0.802711
125 1 5.74127 5.95799 1.81216 -0.136011 -2.75282 -0.154075 0.138121 -4.16607 0.230178 0.032873 0.401047
127 1 8.57446 5.88387 1.67663 -1.51658 -3.67076 0.00771245 0.365408 -4.06158 0.474975 -0.270179 0.735532
18 1 10.0587 4.47472 0.286973 2.01504 1.15568 0.108705 0.211858 -4.03607 0.0956964 0.352978 -0.0486944
20 1 12.7939 4.54238 0.253303 -0.022531 3.00342 -1.17168 0.0601687 -4.09347 -0.275276 0.359941 0.279315
28 1 10.1169 7.35391 0.376262 1.08986 -1.21663 1.80841 0.403893 -4.00798 -0.260156 -0.29885 0.0756855
29 1 11.4127 5.98723 -1.19276 1.3822 1.47477 -0.555896 0.0537025 -4.09112 -0.38708 -0.68196 -0.503117
30 1 12.8531 7.28188 0.34783 0.362699 -0.519128 0.486825 0.135567 -4.10429 -0.0422729 0.76253 0.219365
129 1 11.3642 5.90889 1.81932 -0.995542 1.01394 2.2528 0.109106 -4.08463 0.45453 -0.351396 -0.0242588
32 1 1.48279 10.1923 0.217774 2.66336 -1.18469 0.933482 0.224 -4.11903 0.485182 -0.389622 0.107331
34 1 4.32744 10.195 0.218693 -3.42019 -1.92301 1.41173 0.188735 -4.05118 0.0581698 -0.317605 0.182343
43 1 2.92107 11.628 -1.18815 2.17426 0.782241 3.50485 0.115583 -4.08485 0.00647107 -0.392839 -0.0232843
133 1 2.87707 8.77788 1.80226 -1.44944 0.975575 0.710255 0.0905445 -4.02995 0.00430646 -0.263454 0.354805
141 1 0.146359 11.6297 1.68759 -2.20193 -7.04944 -1.51669 0.309601 -4.0977 -0.12326 -0.177307 0.688343
143 1 2.92416 11.521 1.77859 -0.572232 1.1909 1.77002 0.161771 -4.10517 -0.637241 0.0100609 -0.555595
36 1 7.17897 10.1662 0.332917 0.10168 3.47717 0.174941 0.164746 -3.96878 0.0236772 0.0693691 0.0379084
47 1 8.63625 11.4798 -1.10706 -1.46078 2.66256 0.234251 0.281433 -4.04889 -0.319751 -0.0494059 -0.259257
135 1 5.71447 8.72482 1.87877 -0.880733 0.590278 -0.109653 0.285488 -4.04778 0.453849 0.254948 -0.459932
137 1 8.61908 8.74613 1.7136 -4.19951 1.4167 -2.48788 0.357817 -4.08146 -0.296518 -0.488872 -0.321862
145 1 5.78797 11.4174 1.7812 0.913579 -3.10787 0.676852 0.314234 -4.03615 -0.261903 0.549784 0.10474
147 1 8.63173 11.5707 1.88435 -2.52053 -2.66134 -2.016 0.187198 -4.06149 -0.282425 0.3028 -0.521462
37 1 8.64539 8.6808 -1.07709 -0.410704 1.96136 0.795798 0.361277 -4.1111 -0.192051 0.597299 -0.42219
41 1 14.1834 11.5242 -1.111 -1.35835 -5.95404 3.83557 0.241429 -4.04619 0.0420945 0.203877 -0.226242
131 1 14.189 8.78043 1.89976 -1.59748 2.05417 3.03081 0.393055 -3.98707 0.646449 -0.14427 -0.517146
38 1 10.1092 10.2499 0.401678 0.647054 3.02786 -2.05404 0.493593 -4.05692 -0.591521 -0.553699 0.370099
39 1 11.3428 8.78317 -1.15797 2.80774 -0.622395 -1.00191 0.223423 -4.06626 0.359617 0.178333 0.0111316
40 1 12.8549 10.1114 0.419262 -1.75728 -0.634733 -0.267602 0.240069 -4.07117 -0.192388 0.0513998 -0.339223
139 1 11.4119 8.69776 1.86592 -0.425376 2.4171 -0.0430739 0.108431 -4.08144 -0.211295 0.475956 -0.654015
149 1 11.4267 11.5446 1.8668 -0.904464 -0.906018 0.248794 0.174748 -4.05746 -0.168451 0.345743 -0.130942
49 1 11.351 11.4979 -1.12919 -3.94296 -1.72452 -3.57845 0.143506 -4.0213 0.165237 0.186899 -0.0893195
42 1 1.60077 12.9976 0.201144 -0.841826 -0.173751 0.753914 0.422558 -4.05768 -0.587862 0.366372 0.175967
44 1 4.30049 12.9516 0.185834 -1.17519 0.372824 -0.13007 0.108219 -4.1267 0.789042 0.0804592 0.696631
52 1 1.58776 15.7356 0.432554 -0.585983 1.26946 1.71295 0.671058 -3.96606 -0.875896 -0.372782 -0.795213
54 1 4.38463 15.6552 0.282131 0.269637 0.959657 1.9614 0.269028 -4.07051 -0.24516 0.478441 -0.0411538
153 1 2.9946 14.2978 1.79182 -3.03426 -0.361765 3.65674 0.165042 -3.99256 -0.169357 0.183752 0.538304
46 1 7.13899 12.8477 0.257332 -0.042375 -0.703018 -2.37022 0.223315 -4.01672 -0.190828 0.146788 0.140888
56 1 7.08452 15.7726 0.20239 0.19616 0.505449 -1.21975 0.248508 -4.07053 -0.0993339 -0.240932 0.0348312
155 1 5.76502 14.3443 1.73445 -0.699273 2.50818 -2.71856 0.103104 -4.06543 -0.00641567 0.0883056 0.537063
157 1 8.53251 14.4644 1.81921 1.77519 1.9958 -4.01974 5.0219 -4.07616 -0.139229 -0.119468 0.207083
57 1 8.49816 14.3386 -1.06888 5.27468 2.46447 0.151665 0.490613 -3.96973 -0.0601001 -0.0611332 -1.17592
51 1 14.0057 14.3518 -1.21021 5.08997 3.62125 -2.07853 4.7285 -3.9757 1.08663 -0.433906 -0.09362
151 1 14.2009 14.4155 1.80029 -4.71089 2.01634 -0.85659 0.121265 -3.98559 0.168603 -0.531588 0.263142
48 1 9.93985 13.0563 0.308429 2.86016 2.34417 0.701272 0.26956 -4.05364 0.286824 -0.427666 0.380913
50 1 12.7181 12.9904 0.305705 0.559624 -1.36974 -0.820506 0.176501 -4.05887 0.0543703 -0.138426 0.0678404
58 1 9.99316 15.7186 0.290242 -3.3381 -1.51398 5.38263 0.16966 -4.06785 0.444099 0.408077 -0.0390515
60 1 12.7967 15.7437 0.295922 1.53771 1.90327 -4.70531 0.111382 -4.0594 -0.263549 -0.211093 0.375801
159 1 11.3491 14.3264 1.85076 -0.265735 -1.65506 -3.98071 0.151293 -4.05715 0.022985 -0.0303269 -0.326813
62 1 1.43944 18.5161 0.331717 0.272627 0.831543 -0.200207 0.11576 -4.01617 0.0529392 0.223258 -0.493303
64 1 4.38586 18.6552 0.335915 1.24428 1.0664 2.86252 5.11295 -4.01016 -0.349549 -0.858932 0.21436
163 1 2.94245 17.1558 1.68624 0.341627 2.40032 0.506019 0.386692 -4.02186 0.390472 0.259936 0.379904
171 1 0.141802 19.9783 1.88822 -0.0590841 -1.37942 4.27312 0.168372 -4.11196 -0.354744 -0.0493614 -0.203852
173 1 2.89555 19.9823 1.76971 0.785649 -1.23368 2.3689 0.145206 -4.09608 -0.544729 -0.494438 0.40856
66 1 7.24355 18.6165 0.335134 2.75597 -4.35103 0.905848 5.36856 -4.14055 -0.750505 -0.00131665 0.024733
67 1 8.57677 17.1461 -1.18638 -4.30079 -3.56988 1.31798 0.0495443 -4.13255 -0.0053339 -0.0479322 -0.181286
165 1 5.78304 17.093 1.72538 1.97311 1.99329 -0.167527 0.237929 -4.03212 -0.395207 0.150424 -0.086515
167 1 8.56005 17.078 1.672 1.63712 1.01306 -0.622391 4.61317 -4.07388 0.168913 -0.257189 0.629164
175 1 5.70632 20.007 1.79567 -3.42076 -2.85137 2.01629 0.132872 -4.04111 0.187118 0.0155494 -0.0714108
177 1 8.58858 20.043 2.0013 -1.05917 0.80188 -0.731301 0.960229 -3.99288 -0.342365 -0.790688 -1.13043
75 1 5.71713 19.9361 -1.20119 -4.53949 -0.9021 2.29786 0.127923 -4.05262 -0.33526 0.136353 -0.686085
65 1 5.67248 17.193 -1.16305 -1.31158 -3.63153 -0.620776 0.329463 -4.09287 0.684276 0.0589431 -0.210559
161 1 14.1852 17.2046 1.89345 -8.06951 -0.86164 0.0732044 0.211803 -4.11474 -0.135132 0.203923 -0.457832
68 1 9.83757 18.5862 0.361499 1.01621 0.95189 3.77626 0.50503 -4.09772 0.675373 0.244858 -0.0358971
70 1 12.7582 18.5098 0.321023 -2.75978 -0.241021 0.901339 0.155429 -3.98508 0.466621 0.430577 -0.250946
169 1 11.4357 17.1907 1.78512 -0.050047 0.778513 1.36961 0.109282 -4.04655 -0.792545 0.192128 0.0677285
179 1 11.4548 19.9395 1.87057 0.478562 4.61523 -0.247094 0.245778 -4.07609 -0.346888 -0.0441202 -0.623787
69 1 11.3235 17.1806 -1.10486 2.51938 -0.439877 2.89062 0.210963 -4.05614 0.505894 -0.14715 -0.683314
71 1 14.189 20.001 -1.09819 -3.02828 1.71166 0.793185 0.297635 -3.93727 -0.223884 -0.444854 -0.36603
61 1 14.2026 17.0274 -1.13851 -2.79754 0.110739 5.17862 0.290501 -4.00486 -0.105961 0.329297 0.188828
72 1 1.54936 21.3951 0.238338 2.3338 -3.4761 -2.56089 0.173052 -4.11873 -0.0690852 -0.342835 -0.537549
74 1 4.24289 21.3195 0.367881 -0.775897 2.76848 -0.309503 0.358389 -4.16149 0.298673 0.145877 -0.37355
82 1 1.5098 24.075 0.165917 -0.197856 1.54937 -4.05427 0.287558 -4.09899 -0.212523 0.553792 -0.0893574
84 1 4.24694 24.1216 0.312237 1.75243 2.83472 -4.12876 0.389585 -4.00424 0.956101 0.446409 -0.235458
181 1 0.128659 22.763 1.73373 -3.03311 -1.67311 -0.629939 0.0464685 -4.07419 0.128904 -0.185796 0.0292587
183 1 2.89382 22.7594 1.69139 0.572942 -1.11899 -0.365379 0.154376 -4.10357 -0.256318 0.263031 0.299279
76 1 7.14056 21.2635 0.28609 -0.691281 0.193514 1.05787 0.365081 -3.96908 0.358432 1.08141 -0.0137695
86 1 7.25436 24.2668 0.288709 -2.43118 3.29649 -1.15762 5.4685 -3.94657 0.146914 -0.599674 -0.20149
185 1 5.72509 22.8979 1.69645 3.67767 -2.14848 -3.35625 0.465897 -4.0687 0.191723 -0.890044 0.186423
187 1 8.47118 22.692 1.86724 -0.732136 -0.532565 -1.73565 0.574908 -4.06057 0.251048 -0.179291 -0.396349
78 1 9.92402 21.3232 0.230778 -2.14879 -1.2859 1.20999 0.216179 -4.07185 0.0680073 0.451579 0.851751
80 1 12.7264 21.3466 0.30548 -2.02506 0.894117 1.33119 0.0636543 -4.01844 0.704976 -0.0929967 -0.518568
88 1 9.99398 24.1702 0.329332 -1.34963 2.3224 -3.76156 0.197589 -4.08186 -0.565044 0.156562 -0.268403
90 1 12.8226 24.1983 0.19781 -3.32555 -1.34099 0.789537 0.17783 -4.027 -0.448062 -0.0115509 0.796217
189 1 11.404 22.6532 1.71572 1.1462 2.87937 3.03823 0.284633 -3.97955 0.240521 0.600565 0.297582
92 1 1.49183 27.0716 0.275446 -1.55268 0.823337 -0.21304 0.0684934 -4.03667 -0.208383 -0.347698 0.192224
93 1 2.95679 25.6072 -1.19108 -2.98218 -1.24306 2.03838 0.165168 -4.06561 -0.346565 0.366137 0.0430832
94 1 4.31233 27.0701 0.432786 -2.42482 -0.468398 -1.32983 0.653004 -3.99249 -0.498791 -0.0606792 -0.76117
193 1 2.87926 25.4829 1.70614 -1.0862 0.475835 1.41936 0.406332 -4.00244 0.112763 0.932039 0.253189
5 1 5.72241 28.2956 -1.13037 2.69086 -0.906142 0.0342517 0.564059 -4.04493 -0.156713 0.299258 -0.718726
107 1 8.62684 28.3911 1.81288 1.62718 -2.83475 -3.52836 0.292445 -4.10279 -0.478303 1.04885 -0.473687
96 1 7.19496 27.0059 0.277654 3.8854 -2.09663 -3.2721 0.0374124 -4.09287 -0.209025 -0.160969 0.559969
195 1 5.7699 25.6353 1.72109 -1.7019 -1.17403 1.74296 0.127405 -4.02854 -0.0745155 -0.156491 0.346509
197 1 8.65402 25.6862 1.77367 -0.592902 -0.620959 0.00800132 0.316979 -4.09273 -0.376069 -0.733254 0.491288
7 1 8.51249 28.4072 -1.10937 0.305773 -1.36188 3.04787 0.328765 -4.03118 0.174414 0.272531 -0.802827
191 1 14.1954 25.5315 1.73028 -0.0885336 -4.4938 -0.48509 0.206973 -3.97414 0.626589 0.183103 -0.74868
98 1 9.85719 27.0277 0.233595 2.60699 4.64685 0.62246 0.391679 -4.13576 0.711936 -0.265809 -0.134252
100 1 12.8111 27.1397 0.288238 0.688756 2.41483 -3.36628 0.109902 -4.04476 0.0578629 -0.421489 -0.0698402
199 1 11.3947 25.7747 1.77524 -1.77748 -0.753815 0.440887 0.579627 -3.99917 0.172526 -0.56622 0.318037
99 1 11.3966 25.6653 -1.14857 -3.11862 -0.640777 0.494149 0.137492 -4.06836 0.131017 0.0543921 -0.140669
102 1 1.43258 1.58866 3.29652 7.38627 -3.29026 1.48818 0.293378 -4.08493 0.458307 -0.0848612 0.000813297
104 1 4.40471 1.70471 3.20719 -2.62904 -0.431866 -2.50035 0.226659 -4.06054 -0.83294 -0.154744 -0.494024
202 1 1.64591 1.56967 6.14298 2.02744 3.5456 -1.59179 4.48418 -4.06121 -0.709964 0.890337 0.299944
203 1 2.94499 0.259696 4.72123 -1.3304 -3.48688 0.0854903 0.12752 -4.09777 0.112032 -0.00636803 -0.570499
204 1 4.18458 1.68524 6.22336 -0.935437 1.48785 2.63114 4.39364 -4.05356 0.992279 -0.749358 -0.431864
213 1 2.88677 3.08084 4.68732 -2.28947 -0.845795 -1.07431 0.345266 -4.0944 0.301108 -0.258753 0.0883563
106 1 7.15632 1.63052 3.19228 0.736671 -1.16949 0.0239501 0.233612 -4.12421 0.747694 0.5401 0.74969
205 1 5.64874 0.299036 4.58815 2.33469 0.995414 0.291621 0.556218 -3.98295 0.89799 -0.365596 1.27289
206 1 7.2548 1.68985 6.18524 -1.46106 -1.55409 1.7364 0.351494 -4.0193 -0.50679 -0.663837 -0.348246
207 1 8.58474 0.236208 4.79628 1.31666 3.04051 1.49325 0.145593 -4.03335 0.202856 0.421063 -0.985157
215 1 5.78167 2.95842 4.84812 -1.49422 -2.50707 3.51511 0.510353 -4.03803 -0.373118 0.281424 -0.348658
217 1 8.60442 3.0921 4.74415 -1.80041 2.92479 -5.24384 0.12114 -4.07625 -0.166932 -0.182034 0.163086
201 1 14.2143 0.277593 4.79988 -0.76465 1.66164 -3.30675 0.313326 -4.08347 -0.179142 -0.222803 0.0593872
211 1 14.1953 3.09372 4.85317 0.131749 -3.47244 0.658656 0.259237 -4.04687 0.183902 -0.273833 -0.523807
108 1 9.98023 1.81548 3.31787 1.78008 -0.0382443 0.481447 5.42089 -3.98506 0.257138 -1.32132 -0.18014
110 1 12.7567 1.63776 3.22886 0.143622 0.261967 0.471904 0.15835 -3.96976 0.0799979 0.247248 0.715217
208 1 9.93587 1.5992 6.27315 -2.11946 3.54369 -4.60115 0.124279 -4.15816 0.536137 0.502718 -0.246214
210 1 12.7168 1.62492 6.30112 1.93469 -2.84729 3.21644 0.353215 -4.02616 0.193613 -0.224613 -0.170858
219 1 11.4042 3.08595 4.76865 2.96876 -3.6 -0.306264 0.0653415 -4.01773 -0.425442 -0.32426 0.0178712
112 1 1.47335 4.44722 3.3791 -2.08488 5.53109 1.88305 0.232055 -4.01252 0.0896759 0.399466 0.0796724
114 1 4.45714 4.53943 3.39135 0.408107 -1.46821 1.68028 0.434727 -4.08408 -0.508602 -0.684019 -0.154267
122 1 1.5387 7.19477 3.3467 -2.178 2.10286 -1.52883 0.2649 -3.97081 -0.653589 0.418627 -0.488292
124 1 4.30599 7.3213 3.32434 -1.70609 -0.894295 0.386355 0.157246 -3.98336 -0.112151 0.599896 0.200365
212 1 1.5107 4.56417 6.27923 1.71349 1.1107 -0.37813 0.379239 -4.08451 0.160399 -0.78992 0.0333701
214 1 4.35594 4.34938 6.29711 -3.60792 0.888428 1.10906 4.77638 -4.06682 0.372807 0.708709 -0.514105
222 1 1.54559 7.23945 6.25808 2.60978 -1.28947 -2.65909 0.156146 -4.09601 -0.334858 0.0424548 0.181756
223 1 3.00176 5.86832 4.80758 -2.9209 -3.41332 -1.19244 0.119677 -4.09045 0.17831 -0.382832 -0.0349602
224 1 4.45542 7.31972 6.29348 2.28078 -2.16034 3.83898 0.294198 -4.03517 -0.822573 0.176261 -0.38802
116 1 7.08446 4.43511 3.32475 -0.717838 -0.661302 1.69127 5.10279 -4.08392 0.46451 0.567831 -0.27157
126 1 7.33953 7.39572 3.30402 1.37971 -3.46356 0.697126 0.488402 -3.9748 -0.426813 -0.678756 -0.30837
216 1 7.15048 4.45322 6.14438 0.663868 1.20315 1.59813 0.329117 -4.1204 0.343344 0.392213 0.169309
225 1 5.7941 6.05956 4.72372 0.299468 -1.75276 -1.18853 0.617705 -4.03342 -0.414391 -0.612545 0.13454
226 1 7.22143 7.27669 6.26082 -1.92098 2.73055 -2.00716 0.110269 -4.121 0.225724 -0.141987 0.151149
227 1 8.61587 5.8789 4.7302 -0.532809 -0.371899 0.126652 0.130587 -4.03536 -0.437646 0.0911255 -0.175196
221 1 14.1524 5.86373 4.82143 0.796103 -1.93786 -0.0692733 0.125742 -4.06326 -0.152925 0.233489 -0.669075
118 1 10.0291 4.4796 3.28829 -2.00022 0.251406 -1.34662 0.100535 -4.11498 -0.292272 0.34802 -0.503313
120 1 12.7727 4.51546 3.2254 -2.93314 -0.0391201 0.674702 0.110451 -4.08985 0.199384 -0.034663 0.300915
128 1 10.0124 7.32217 3.24037 -2.7644 2.28321 3.1472 0.125609 -4.09679 -0.457403 0.207409 -0.00119551
130 1 12.7448 7.26336 3.24619 -1.8326 -3.86476 -3.53257 0.159439 -4.0993 0.776673 0.172772 0.238267
218 1 9.92391 4.44006 6.25509 2.54663 2.02038 1.45237 0.0879123 -4.10631 0.185989 0.186602 0.139051
220 1 12.7806 4.44772 6.24701 -0.879614 -1.25736 1.20844 0.0628733 -3.9845 -0.157304 -0.312497 0.30445
228 1 9.92162 7.27115 6.33857 0.0778168 -0.255412 1.79302 0.255579 -4.08171 -0.069743 0.0739355 -0.0519756
229 1 11.2652 5.91426 4.80154 0.58398 1.74186 -1.1864 0.299008 -4.08274 0.96076 0.0836605 -0.0160389
230 1 12.8446 7.35538 6.17336 2.31232 0.678649 1.21522 0.273581 -4.04933 -0.395793 -0.561914 0.31168
132 1 1.49806 10.2454 3.20707 0.926583 1.77752 2.20689 0.200685 -4.02813 0.039123 -0.673787 0.633139
134 1 4.33421 10.2257 3.342 -1.95039 -2.01599 -1.69927 0.275072 -4.01775 -0.1952 -0.415396 -0.121397
232 1 1.56015 10.1641 6.27428 2.12226 0.0705619 -0.681687 0.208388 -4.09559 -0.36346 0.179714 -0.295554
233 1 2.86938 8.7146 4.82398 -0.683116 0.194601 5.31636 0.144481 -4.01915 0.441715 -0.257412 -0.582325
234 1 4.30212 10.2221 6.25306 -0.621179 0.157015 -0.123602 5.26236 -4.06873 0.731688 -0.228199 0.268687
241 1 0.149986 11.5192 4.72512 -2.41095 0.904273 -0.0212207 0.0916531 -4.06652 -0.256939 -0.0955534 -0.0281697
243 1 2.87755 11.525 4.67316 -0.234391 0.744033 0.670144 0.240673 -4.03752 0.137595 0.226141 0.288829
136 1 7.34978 10.1327 3.31971 0.629619 0.98562 1.20116 4.85814 -4.08932 -0.585699 0.0963845 -0.407161
235 1 5.87066 8.81598 4.69676 0.465343 -1.43871 1.4062 0.375463 -4.067 -0.356005 -0.410044 0.237999
236 1 7.13391 10.1574 6.28024 2.36863 -0.429749 -0.449581 0.258722 -4.1166 -0.149936 -0.124993 0.383499
237 1 8.63235 8.75913 4.91645 2.56455 0.935182 0.542097 0.358815 -4.12427 -0.197747 0.0400145 -0.790268
245 1 5.87987 11.5851 4.76044 0.240801 -0.541356 -0.243051 0.423315 -4.05479 -0.479279 0.134139 -0.391914
247 1 8.6244 11.498 4.86809 0.432483 -3.51449 2.45946 0.193598 -4.12283 0.217318 0.883908 0.223704
231 1 14.2058 8.74973 4.72411 -0.187028 1.52542 1.17023 0.0858658 -4.1108 0.727265 0.0161307 -0.342034
138 1 9.92992 10.142 3.25365 -1.64946 -2.47072 4.24093 5.09744 -4.13995 0.752764 -0.292303 0.586968
140 1 12.8378 10.2224 3.26171 -3.06779 0.590986 0.953237 0.191224 -4.11864 -0.706636 -0.186796 0.440223
238 1 10.0462 10.0877 6.27956 4.00462 1.03455 -0.403308 0.140161 -4.02397 0.197049 0.0998801 0.259485
239 1 11.364 8.67474 4.73138 1.07823 -1.10089 5.00007 0.0977132 -4.09595 0.285778 0.0370893 -0.00202059
240 1 12.788 10.0949 6.10429 0.473313 1.12475 -2.36237 0.36986 -3.98559 0.210553 0.734414 1.0939
249 1 11.3994 11.5636 4.85745 0.00818624 4.09037 -1.73351 0.24404 -4.07757 -0.390779 -0.141909 -0.166537
142 1 1.52181 13.0509 3.3632 -1.28477 -4.17543 2.9049 0.346692 -4.11131 -0.0743835 -0.23012 -0.262487
144 1 4.29805 12.8216 3.19683 1.81958 -2.20134 0.0142737 4.76431 -4.04873 0.348061 0.815322 0.28409
152 1 1.51339 15.8576 3.33926 -0.669006 2.84052 -0.820189 5.18519 -4.15198 0.784278 -0.547165 -0.669411
154 1 4.25725 15.7179 3.25392 2.46855 -1.35996 -1.82568 0.305277 -4.0495 0.737791 0.181468 -0.444283
242 1 1.53992 12.9165 6.22247 0.280113 3.4737 -1.1283 0.118323 -4.12908 0.124502 -0.106249 0.113442
244 1 4.24982 12.7782 6.24911 2.14938 -0.0921022 -0.749942 5.17367 -4.07361 -0.0177328 0.774288 -0.418064
251 1 0.128475 14.4623 4.82376 2.68999 -0.1114 0.508103 0.222884 -4.05012 -0.128514 -0.294911 -0.01883
252 1 1.63436 15.7834 6.13482 -3.12021 0.366244 0.726554 0.461636 -4.00585 -0.269785 -0.410876 0.344998
253 1 3.02926 14.3678 4.79851 0.643288 -2.70259 -2.00417 0.353052 -4.02177 -0.247716 0.00549555 -0.0408268
254 1 4.32401 15.7314 6.34286 -3.29084 -1.84392 -1.68306 0.273595 -4.02452 0.082757 0.155115 -0.398511
146 1 7.13468 12.9886 3.2683 1.04428 0.1527 -2.62964 0.13173 -3.92446 0.323317 -0.495924 -0.139406
156 1 7.1141 15.8395 3.29524 -5.45427 -4.00032 2.42238 0.289997 -4.04471 0.100178 -0.338013 0.0556594
246 1 7.17912 12.9922 6.29378 0.991656 -1.68864 -0.448699 0.136732 -4.01818 0.287144 -0.408381 0.0104727
255 1 5.79332 14.3612 4.71557 0.949383 2.2935 -3.25327 0.177254 -4.08636 -0.372462 0.142541 0.529232
256 1 7.19239 15.8423 6.15647 -0.861153 0.781607 -0.146585 0.373075 -4.05637 0.670632 -0.785288 -0.157262
257 1 8.60857 14.4287 4.81498 -2.00567 3.54744 2.76289 0.0729128 -4.05844 -0.63359 -0.365436 -0.763732
148 1 10.0789 12.8625 3.36568 2.53119 -0.204599 1.59625 0.297362 -4.02218 -0.474604 0.61836 0.115177
150 1 12.8144 12.9078 3.3318 0.842405 -1.04171 -0.584461 0.156524 -4.12169 0.584479 0.616206 -0.113252
158 1 10.0599 15.8093 3.34865 1.95172 -4.28031 -2.67566 0.252875 -4.03002 -0.0572623 -0.506292 -0.0401321
160 1 12.7974 15.8078 3.24915 2.05154 2.79304 -0.0709358 0.188918 -4.06607 0.150114 -0.0889829 0.740749
248 1 10.001 13.0598 6.29875 1.15591 3.93167 -3.97146 0.326853 -4.0316 0.121331 0.0232739 -0.287313
250 1 12.9049 12.9601 6.20172 1.45982 -1.9964 -1.75047 0.257851 -4.08399 0.0290658 -0.221909 -0.0459563
258 1 10.0849 15.781 6.26071 3.15439 -2.57917 -3.22034 5.29569 -4.11247 -0.318263 -0.567953 0.0971446
259 1 11.5154 14.2983 4.75889 2.36546 0.76793 -0.871017 0.266631 -4.07846 -0.365027 0.526978 -0.12038
260 1 12.7221 15.7462 6.28842 1.07372 0.97037 -2.70378 0.528372 -4.00267 0.638451 0.16682 0.127541
162 1 1.61205 18.4318 3.28105 0.103087 0.473685 0.329909 4.89953 -4.06332 -0.0827268 0.590726 0.0633334
164 1 4.41893 18.6151 3.16761 -0.211573 3.22505 -5.20284 0.340749 -4.04666 -0.234894 -0.452683 0.561437
262 1 1.64124 18.6991 6.23783 -1.57751 0.894061 -4.43727 0.343311 -4.09406 -0.670189 -0.55994 -0.307782
263 1 3.02324 17.1738 4.74562 -2.37006 -0.133771 0.32695 0.260459 -4.08699 0.0426096 0.436368 0.436227
264 1 4.25569 18.5351 6.38148 2.99979 1.41468 -0.253245 0.479385 -4.05168 0.881001 0.0227326 -0.0874909
271 1 0.239882 19.931 4.65446 -2.9132 -1.24747 -1.34561 0.589483 -4.05849 -0.25911 0.0775583 0.130489
273 1 3.06119 20.0027 4.76161 0.40391 -0.0741893 3.19324 0.356937 -4.07988 -0.390198 0.181064 -0.471061
166 1 7.16241 18.5363 3.26286 0.698547 0.150344 -2.49931 0.172546 -4.13256 -0.273873 -0.205237 -0.192063
265 1 5.71847 17.1429 4.88014 -1.6126 -0.82668 -3.54668 0.423399 -4.08011 -0.498626 0.531178 -0.293601
266 1 7.25348 18.553 6.1577 1.95445 3.37989 -0.145865 0.540819 -4.00073 -0.637724 0.267314 0.239194
267 1 8.63962 17.1234 4.68737 1.62128 1.24999 -1.44411 0.26046 -4.0337 -0.554098 0.273575 0.238779
275 1 5.66392 19.9514 4.76784 0.0670137 -1.38317 -3.87798 0.29946 -4.0726 0.374276 0.316118 0.415352
277 1 8.52362 20.0544 4.75722 0.898333 -0.0775842 -0.479706 0.252848 -4.10525 0.621218 0.19615 0.440324
261 1 14.1769 17.1487 4.83749 3.22524 -0.724689 1.23685 0.352741 -4.10496 -0.105343 0.00126574 0.116591
168 1 9.9888 18.5753 3.30529 -3.61858 0.233632 -1.83299 0.201392 -4.0402 -0.146213 -0.455167 -0.184256
170 1 12.8038 18.6463 3.41025 0.900172 4.64776 -2.52583 0.324005 -4.07956 0.0609148 -0.345605 -0.0256466
268 1 9.90461 18.5053 6.35624 4.57801 -0.241298 0.328247 4.49265 -4.02543 0.623795 0.123848 -0.592011
269 1 11.4148 17.1891 4.94236 1.22914 3.37173 -1.05524 0.383749 -4.04378 0.778224 0.249123 -1.25135
270 1 12.909 18.7314 6.24305 -1.75346 -1.91228 -0.862528 0.529507 -4.04818 -0.660375 -0.104702 0.773458
279 1 11.3598 20.0486 4.73557 2.0114 -4.45816 0.994583 0.260527 -4.02387 -0.307713 -0.281849 0.638014
172 1 1.47279 21.4257 3.30836 2.33301 -0.225112 2.95214 0.271209 -4.07501 1.03015 0.0732777 -0.33175
174 1 4.32705 21.4567 3.15667 -1.27528 -0.710527 -1.51037 0.268595 -4.07893 -0.257856 -0.198813 0.250408
182 1 1.5749 24.1646 3.26125 -0.784188 -3.79054 -2.16947 0.0646618 -4.11308 -0.698897 0.0928606 0.525944
184 1 4.3073 24.238 3.21901 -0.587332 0.565944 -1.32797 0.143578 -4.06302 0.34038 -0.460142 -0.0872461
272 1 1.50093 21.4332 6.16347 -1.3891 0.701157 2.48604 0.364586 -4.11559 0.142993 -0.279228 0.775794
274 1 4.4257 21.4489 6.32346 2.59471 -0.91757 -0.537123 0.260906 -4.01409 0.0286862 -0.372475 -0.546073
281 1 0.183488 22.7914 4.82075 -2.74019 0.616667 0.622568 0.152082 -3.99722 -0.578248 0.474698 -0.182729
282 1 1.52472 24.1909 6.3313 -1.23117 0.365724 -0.651941 0.159995 -4.0791 0.650773 0.37556 -0.468637
283 1 2.92311 22.8102 4.83834 1.18139 2.06881 4.32688 0.171981 -4.01963 0.453962 0.302152 -0.258479
284 1 4.42474 24.2671 6.29922 -2.88227 1.45219 3.65201 0.163485 -4.01108 -0.191943 -0.415688 -0.204827
176 1 7.06694 21.3141 3.32884 -3.95137 -1.5893 -1.01736 0.389883 -4.05473 0.221252 -0.0795861 -0.896846
186 1 7.17879 24.1447 3.16992 2.78581 2.06017 1.88695 0.189041 -3.98263 -0.181215 0.731601 0.20012
276 1 7.10716 21.4372 6.31264 2.60993 -1.18025 -2.38511 0.240223 -4.04099 0.282199 -0.465825 -0.288699
285 1 5.85589 22.7635 4.63436 1.31531 1.02106 -0.50399 0.534678 -4.00695 -0.962444 1.15628 1.19542
286 1 7.16944 24.2408 6.29325 1.08031 -1.08147 0.839848 0.276962 -4.03211 -0.229429 -0.426808 -0.325649
287 1 8.6565 22.7436 4.67972 2.42 3.87829 -0.705154 4.74679 -4.18908 -0.637128 0.198017 0.625983
178 1 9.99102 21.4199 3.22368 -1.13098 -1.50552 3.15931 0.239843 -4.07344 0.327975 -0.265693 -0.111173
180 1 12.8404 21.4228 3.35437 -0.471497 0.0061306 0.269058 0.289824 -4.18305 0.273021 0.134812 0.319017
188 1 10.0407 24.0693 3.11924 -1.30348 -2.27273 0.479064 4.65095 -3.96502 -0.15039 0.978287 -0.240987
190 1 12.925 24.1389 3.23381 -1.55903 -2.12372 1.13416 0.399837 -3.98647 -1.07629 0.210768 0.384214
278 1 9.94955 21.4304 6.36299 1.38589 -0.978514 1.96516 0.320677 -3.98956 0.0367999 -0.505768 -0.56111
280 1 12.8739 21.3633 6.17734 1.61778 1.13426 1.57654 0.289921 -4.13072 0.213782 -0.0264833 -0.0139189
288 1 10.0194 24.1956 6.34381 2.68269 2.22443 1.78439 0.381251 -4.00879 -0.618229 -0.236789 0.217672
289 1 11.3072 22.8471 4.76252 -3.96248 4.07387 -0.259648 0.487729 -4.09331 0.442256 -0.352586 0.0589441
290 1 12.8777 24.1232 6.23253 1.06046 -1.98762 3.24564 0.236219 -4.09091 -0.251542 0.0616068 0.255057
192 1 1.54582 26.9795 3.29359 0.832332 -0.820942 0.130328 0.145587 -4.13926 -0.0771799 -0.0136002 -0.137509
194 1 4.33343 27.1078 3.23714 -1.61671 -3.20912 1.28134 0.249707 -4.05807 0.0836965 -0.568827 -0.643455
291 1 0.123486 25.6243 4.8782 -1.91934 -0.395923 -0.219087 0.373536 -3.99931 -0.153427 -0.0636424 -0.653918
292 1 1.58125 27.1181 6.14924 0.521729 -0.104332 -0.21211 0.262849 -4.12325 -0.197502 -0.76509 0.220404
293 1 3.0799 25.6086 4.73498 2.80973 1.17343 -0.298043 0.379746 -3.99542 -0.764382 0.0301711 0.486014
294 1 4.2495 27.1204 6.22519 -1.17778 2.9951 1.58236 0.25097 -4.04336 0.971807 -0.278853 -0.00895629
196 1 7.3038 27.0489 3.37662 3.37805 -2.98627 4.17109 4.75863 -4.00871 -0.896239 0.070244 -0.435299
295 1 5.73558 25.636 4.71445 2.43808 0.681994 -1.51506 0.155508 -4.08572 0.417374 -0.245493 0.440519
296 1 7.17419 27.0665 6.13923 0.309675 6.50899 -1.89168 0.242913 -3.97196 -0.375141 0.567763 -0.103835
297 1 8.56397 25.5256 4.76019 -0.134748 1.31643 -3.31811 0.344279 -4.09254 0.869678 -0.111929 -0.150534
209 1 11.3537 28.3011 4.82616 -0.393176 -1.47754 0.78913 5.6709 -3.9641 0.342224 1.03396 -0.749955
198 1 9.95313 27.0869 3.17612 0.689763 -0.698924 -1.31982 0.298733 -3.91056 0.201552 -0.201459 0.990297
200 1 13.0099 27.0067 3.22917 5.30296 -0.270392 0.651806 5.30891 -3.99108 -0.781132 -0.0789765 0.173326
298 1 9.9521 27.1594 6.30184 1.28797 -2.74568 -4.13594 0.325451 -4.05483 -0.522656 -0.640172 0.164001
299 1 11.357 25.6421 4.8021 0.613569 6.18239 1.53807 5.96429 -3.99804 0.066122 0.174111 -0.258874
300 1 12.9347 27.0657 6.29421 -0.577292 -1.28953 -3.83829 0.296968 -4.06601 -0.606417 -0.000336635 0.0444275
301 1 0.190771 0.330155 7.61591 0.5675 -0.168496 -2.46061 4.757 -4.11461 0.12056 -0.429774 0.436481
302 1 1.52998 1.64637 9.36329 -1.42736 -3.15682 0.972455 0.285075 -4.06868 0.101594 -0.133079 -0.0622177
303 1 2.87995 0.257353 7.7675 0.341516 -0.0404191 -2.60214 0.181975 -4.09756 -0.137385 -0.411556 0.114194
304 1 4.29008 1.6221 9.20696 -4.04083 -0.468429 4.02966 0.151485 -4.02574 0.279105 0.924285 0.44793
311 1 0.149724 2.85167 7.75933 -1.74976 0.28104 0.763369 5.03984 -4.01296 -0.16815 1.43745 -0.387703
313 1 2.89377 2.99568 7.64767 0.148637 -0.416692 -0.495992 0.339622 -3.99239 -0.215805 0.628308 1.0288
403 1 2.9679 0.297361 10.7739 0.394335 0.406084 2.23505 0.174623 -4.07514 0.216206 -0.785863 0.0645808
411 1 0.156785 3.04543 10.7293 0.660313 -0.658618 -1.38298 0.137661 -4.09567 -0.235536 0.166757 -0.125719
413 1 2.87494 3.0559 10.8378 -3.05234 -3.9865 -0.430171 0.329623 -4.11607 0.09452 0.316499 -0.660565
305 1 5.63949 0.272746 7.76325 -2.6762 0.601797 -1.53878 0.271904 -3.98072 0.644659 0.259074 -0.690164
306 1 7.16827 1.7968 9.23588 -0.497955 1.38302 -0.554626 0.424239 -3.94722 -0.60989 -0.788661 0.22284
307 1 8.54451 0.339894 7.80697 2.06573 -1.47317 -0.377265 0.315912 -4.08454 -0.279057 -0.719251 0.0832186
315 1 5.88369 2.98404 7.68088 0.746495 3.22544 0.384377 0.621272 -4.04535 -0.740613 0.168504 0.305671