ITEM: TIMESTEP
36000
ITEM: NUMBER OF ATOMS
2000
ITEM: BOX BOUNDS pp pp pp
1.0838953229856951e-01 1.4221610467701321e+01
2.1677906459713903e-01 2.8443220935402643e+01
-5.8259377815472013e-01 5.7902593778154284e+01
ITEM: ATOMS id type x y z vx vy vz c_csym c_peratom fx fy fz
2 1 1.62332 1.66863 0.887007 -0.282889 -3.25185 -0.636516 0.277494 -4.09486 -0.30657 0.23872 -0.326448
4 1 4.35789 1.61575 0.81601 0.990702 -5.33602 3.45801 0.220791 -4.13085 0.0592763 0.09938 0.366495
11 1 0.115605 3.14255 -0.535355 0.617832 -0.194419 3.50607 0.20637 -4.05518 -0.408395 0.0212356 -0.0166118
101 1 0.126621 0.284403 2.31499 -1.57173 1.46596 2.1275 0.151657 -4.10093 -0.277876 0.130926 -0.083115
103 1 2.85007 0.270771 2.37363 0.287695 0.367304 -1.8153 0.237917 -3.99564 0.512686 0.07558 -0.264836
111 1 0.168447 3.08626 2.34102 -2.2925 0.592843 0.179022 0.130577 -4.13729 0.00523376 0.217049 -0.163614
113 1 2.87763 3.13123 2.39562 -1.71434 2.42111 -1.1208 0.327267 -4.07029 -0.205093 0.212799 0.193267
13 1 2.94284 3.10367 -0.563879 -0.0706192 -1.95523 0.774801 0.071915 -4.02445 -0.426025 -0.12731 0.265335
6 1 7.17995 1.58532 0.880359 -1.53139 -1.81767 -2.43971 0.225511 -4.09451 -0.0235918 0.498949 0.240103
17 1 8.63608 3.25517 -0.514504 -1.24355 -0.0988133 -0.860341 4.93858 -4.0557 -0.605868 -0.824199 -0.308618
105 1 5.90739 0.22905 2.34245 0.812795 -1.48127 -4.16198 0.293802 -4.07577 -0.358101 -0.128177 0.0287196
115 1 5.79048 3.13764 2.32795 -0.932742 0.818202 0.0439582 0.179899 -4.04202 -0.193888 -0.644882 0.157918
117 1 8.60233 3.08029 2.407 0.475293 0.415756 -1.302 0.158844 -4.05718 -0.471464 0.14662 -0.901979
15 1 5.86915 3.09703 -0.526403 -1.1078 -3.23994 -0.243916 0.289024 -4.00741 -0.0827999 0.169571 -0.570924
8 1 9.98472 1.71462 0.76694 1.02028 2.64764 -1.65962 0.376352 -4.04883 -0.26047 0.139591 1.26482
9 1 11.3244 0.287262 -0.483866 -0.628437 1.37052 0.162777 0.384374 -4.04412 0.882775 0.0171588 -0.582115
10 1 12.8557 1.68831 0.816532 -0.261261 2.58464 0.684826 0.131219 -4.02863 -0.0657249 0.092326 0.520099
109 1 11.3921 0.306018 2.31303 4.17545 -4.26001 3.01885 0.166766 -4.07891 -0.373056 -0.171833 0.22327
119 1 11.4562 3.11085 2.25984 -0.877516 0.612354 1.13148 0.150046 -4.10461 -0.672408 -0.315855 0.291657
12 1 1.52356 4.6359 0.786488 1.18436 1.40208 1.05812 0.559047 -4.04911 -0.0205921 -0.162794 0.112647
14 1 4.34915 4.42365 0.978431 -0.761965 1.11821 -1.53086 0.269563 -4.09511 -0.0853173 0.312057 -0.59229
22 1 1.54026 7.32431 0.81331 0.529166 1.27637 -0.648244 0.23738 -4.0345 0.145628 -0.338332 1.04224
23 1 3.01689 5.92797 -0.555523 4.21453 0.286138 -0.65637 0.221659 -4.03766 -0.271958 0.174603 -0.306452
24 1 4.35552 7.36387 0.88208 0.718611 1.41969 0.425215 0.105467 -4.02492 -0.281783 -0.0703146 -0.255038
121 1 0.132435 5.82793 2.3342 -2.35864 3.10392 -0.471262 0.183448 -4.03282 0.302477 0.228409 0.00132611
123 1 3.01618 5.86763 2.42752 1.00139 1.8653 -1.24788 0.252614 -4.12291 -0.0496049 -0.108379 -0.0901523
16 1 7.14135 4.5226 0.957664 0.603539 0.154603 0.133915 0.151069 -4.05436 -0.0637646 -0.113968 -0.510576
25 1 5.70759 5.92495 -0.467044 -0.827089 1.1553 2.35682 0.313511 -4.13406 0.027145 -0.606373 -0.877401
26 1 7.1412 7.16975 0.833534 -0.0337704 2.62343 0.778117 4.91277 -3.93384 0.554282 1.42369 0.74814
125 1 5.74127 5.95799 2.37665 -0.136011 -2.75282 -0.154075 0.13778 -4.189 -0.0520614 0.175098 -0.0555659
127 1 8.57446 5.88387 2.24397 -1.51658 -3.67076 0.00771245 0.354212 -4.08783 0.390265 0.0439864 1.03054
18 1 10.0587 4.47472 0.883524 2.01504 1.15568 0.108705 0.209311 -4.05169 -0.153335 0.486238 0.0161605
20 1 12.7939 4.54238 0.850562 -0.022531 3.00342 -1.17168 0.0587915 -4.11492 0.128105 0.019007 0.15942
28 1 10.1169 7.35391 0.970935 1.08986 -1.21663 1.80841 0.398909 -4.0226 -0.497675 -0.305352 0.0433618
29 1 11.4127 5.98723 -0.565101 1.3822 1.47477 -0.555896 0.053465 -4.11638 -0.371903 -0.411112 -0.167326
30 1 12.8531 7.28188 0.943102 0.362699 -0.519128 0.486825 0.134554 -4.13285 0.00333095 0.782501 -0.0521358
129 1 11.3642 5.90889 2.38365 -0.995542 1.01394 2.2528 0.107711 -4.10257 0.421014 -0.01231 -0.210935
32 1 1.48279 10.1923 0.815779 2.66336 -1.18469 0.933482 0.217512 -4.12817 0.0991153 -0.356702 0.52136
34 1 4.32744 10.195 0.81668 -3.42019 -1.92301 1.41173 0.184582 -4.07122 -0.322363 -0.302044 0.618587
43 1 2.92107 11.628 -0.560582 2.17426 0.782241 3.50485 0.113166 -4.09487 -0.365817 -0.468595 -0.398273
133 1 2.87707 8.77788 2.36695 -1.44944 0.975575 0.710255 0.0897041 -4.0655 0.107732 -0.186937 -0.00779343
141 1 0.146359 11.6297 2.25469 -2.20193 -7.04944 -1.51669 0.300325 -4.11227 0.360469 0.172534 0.428036
143 1 2.92416 11.521 2.34378 -0.572232 1.1909 1.77002 0.159768 -4.11888 -0.409125 0.319952 -0.361918
36 1 7.17897 10.1662 0.928501 0.10168 3.47717 0.174941 0.162076 -3.98799 -0.100797 0.0979361 -0.0451567
47 1 8.63625 11.4798 -0.481195 -1.46078 2.66256 0.234251 0.2761 -4.06758 -0.103974 0.147375 -0.576763
135 1 5.71447 8.72482 2.44186 -0.880733 0.590278 -0.109653 0.280467 -4.08053 0.255729 -0.228604 -0.403912
137 1 8.61908 8.74613 2.28015 -4.19951 1.4167 -2.48788 0.350534 -4.10393 -0.425071 0.0722693 0.150045
145 1 5.78797 11.4174 2.34633 0.913579 -3.10787 0.676852 0.313762 -4.06036 -0.232006 0.277427 0.160784
147 1 8.63173 11.5707 2.44731 -2.52053 -2.66134 -2.016 0.183003 -4.08277 -0.369535 0.683045 -0.761657
37 1 8.64539 8.6808 -0.451857 -0.410704 1.96136 0.795798 0.353514 -4.13259 -0.650703 0.397184 -0.347584
41 1 14.1834 11.5242 -0.485055 -1.35835 -5.95404 3.83557 0.235936 -4.06074 -0.0360565 0.580547 -0.0579081
131 1 14.189 8.78043 2.4624 -1.59748 2.05417 3.03081 0.381505 -4.01242 0.593839 -0.220032 -0.230146
38 1 10.1092 10.2499 0.995817 0.647054 3.02786 -2.05404 0.491262 -4.06957 -1.11423 -0.592866 0.466197
39 1 11.3428 8.78317 -0.531041 2.80774 -0.622395 -1.00191 0.223106 -4.08832 0.349051 0.03783 0.234876
40 1 12.8549 10.1114 1.01303 -1.75728 -0.634733 -0.267602 0.233967 -4.09408 -0.253662 0.0647944 -0.91151
139 1 11.4119 8.69776 2.42927 -0.425376 2.4171 -0.0430739 0.106847 -4.09461 -0.107331 0.164638 -0.25408
149 1 11.4267 11.5446 2.43014 -0.904464 -0.906018 0.248794 0.172263 -4.07157 -0.146831 0.226063 -0.244468
49 1 11.351 11.4979 -0.502864 -3.94296 -1.72452 -3.57845 0.142362 -4.0413 0.274074 0.58126 -0.782078
42 1 1.60077 12.9976 0.799499 -0.841826 -0.173751 0.753914 0.416223 -4.07729 -0.861293 0.417865 0.319907
44 1 4.30049 12.9516 0.784511 -1.17519 0.372824 -0.13007 0.105701 -4.14809 0.434042 0.222221 0.543957
52 1 1.58776 15.7356 1.02604 -0.585983 1.26946 1.71295 0.652922 -3.99776 -0.5457 -0.262717 -0.794742
54 1 4.38463 15.6552 0.878783 0.269637 0.959657 1.9614 0.264627 -4.08428 -0.257783 0.0539779 -0.0454217
153 1 2.9946 14.2978 2.35674 -3.03426 -0.361765 3.65674 0.163967 -4.0068 -0.327826 0.351723 0.0573078
46 1 7.13899 12.8477 0.854506 -0.042375 -0.703018 -2.37022 0.221095 -4.036 -0.0464763 0.572253 0.225292
56 1 7.08452 15.7726 0.800719 0.19616 0.505449 -1.21975 0.242143 -4.08315 0.168866 -0.130077 0.323305
155 1 5.76502 14.3443 2.30057 -0.699273 2.50818 -2.71856 0.102544 -4.093 0.12526 0.0735498 0.665805
157 1 8.53251 14.4644 2.38355 1.77519 1.9958 -4.01974 4.95102 -4.10137 0.0907605 -0.243256 0.251108
57 1 8.49816 14.3386 -0.443824 5.27468 2.46447 0.151665 0.474336 -3.9956 0.515507 -0.275096 -0.9229
51 1 14.0057 14.3518 -0.582183 5.08997 3.62125 -2.07853 4.65348 -4.00134 1.21311 -0.588504 -0.25292
151 1 14.2009 14.4155 2.36502 -4.71089 2.01634 -0.85659 0.118984 -4.01215 -0.229702 -0.115154 -0.146241
48 1 9.93985 13.0563 0.904529 2.86016 2.34417 0.701272 0.267262 -4.08051 0.70331 -0.787621 0.364718
50 1 12.7181 12.9904 0.901862 0.559624 -1.36974 -0.820506 0.173516 -4.08332 0.272495 0.0482348 0.140098
58 1 9.99316 15.7186 0.886724 -3.3381 -1.51398 5.38263 0.166063 -4.08285 0.352838 0.548 0.289164
60 1 12.7967 15.7437 0.892285 1.53771 1.90327 -4.70531 0.11032 -4.07397 -0.29634 -0.230177 0.234195
159 1 11.3491 14.3264 2.41443 -0.265735 -1.65506 -3.98071 0.150009 -4.07695 0.398713 0.0250925 -0.565176
62 1 1.43944 18.5161 0.927327 0.272627 0.831543 -0.200207 0.115149 -4.03771 0.179313 0.133938 -0.491776
64 1 4.38586 18.6552 0.931437 1.24428 1.0664 2.86252 5.0262 -4.02782 -0.393052 -1.10245 -0.200409
163 1 2.94245 17.1558 2.25337 0.341627 2.40032 0.506019 0.377319 -4.03644 0.739662 0.348286 0.0961154
171 1 0.141802 19.9783 2.4511 -0.0590841 -1.37942 4.27312 0.164953 -4.12706 -0.523636 -0.372449 -0.475658
173 1 2.89555 19.9823 2.33509 0.785649 -1.23368 2.3689 0.1434 -4.11779 -0.613546 -0.127987 0.403526
66 1 7.24355 18.6165 0.930672 2.75597 -4.35103 0.905848 0.360073 -4.1663 -0.725042 0.269574 0.308347
67 1 8.57677 17.1461 -0.558848 -4.30079 -3.56988 1.31798 0.0495255 -4.14917 -0.356301 0.0234276 -0.185227
165 1 5.78304 17.093 2.29169 1.97311 1.99329 -0.167527 0.235138 -4.05193 -0.263924 0.135034 0.394296
167 1 8.56005 17.078 2.23943 1.63712 1.01306 -0.622391 0.52964 -4.08259 0.145521 -0.274127 0.542868
175 1 5.70632 20.007 2.3605 -3.42076 -2.85137 2.01629 0.131383 -4.06201 0.242301 -0.0261223 -0.270228
177 1 8.58858 20.043 2.56181 -1.05917 0.80188 -0.731301 0.930163 -3.99915 -0.428466 -0.800774 -1.0417
75 1 5.71713 19.9361 -0.573348 -4.53949 -0.9021 2.29786 0.125749 -4.07413 -0.00904531 0.32627 -0.514945
65 1 5.67248 17.193 -0.536013 -1.31158 -3.63153 -0.620776 0.32542 -4.11211 0.437117 -0.0948925 -0.101229
161 1 14.1852 17.2046 2.45622 -8.06951 -0.86164 0.0732044 0.207407 -4.13417 0.1907 -0.250875 -0.740147
68 1 9.83757 18.5862 0.956483 1.01621 0.95189 3.77626 0.497795 -4.11867 0.961684 0.780323 -0.00171736
70 1 12.7582 18.5098 0.916858 -2.75978 -0.241021 0.901339 0.154157 -4.01329 0.23225 0.669935 -0.755707
169 1 11.4357 17.1907 2.35017 -0.050047 0.778513 1.36961 0.108057 -4.07166 -0.621676 0.204699 0.0967331
179 1 11.4548 19.9395 2.43382 0.478562 4.61523 -0.247094 0.243022 -4.09694 -0.142062 -0.103639 -0.281292
69 1 11.3235 17.1806 -0.479042 2.51938 -0.439877 2.89062 0.205474 -4.08526 0.159897 0.0514807 -0.871732
71 1 14.189 20.001 -0.472516 -3.02828 1.71166 0.793185 0.292345 -3.96174 -0.00148372 -0.385081 -0.654557
61 1 14.2026 17.0274 -0.511985 -2.79754 0.110739 5.17862 0.285792 -4.02807 0.251399 0.204931 0.168237
72 1 1.54936 21.3951 0.835911 2.3338 -3.4761 -2.56089 0.170631 -4.13803 -0.398524 0.0282878 -0.465301
74 1 4.24289 21.3195 0.96273 -0.775897 2.76848 -0.309503 0.350286 -4.16894 0.475292 0.362357 -0.497207
82 1 1.5098 24.075 0.765013 -0.197856 1.54937 -4.05427 0.283126 -4.12039 -0.284785 0.498062 -0.0182155
84 1 4.24694 24.1216 0.908257 1.75243 2.83472 -4.12876 0.38498 -4.01874 0.987915 0.512173 -0.178255
181 1 0.128659 22.763 2.29986 -3.03311 -1.67311 -0.629939 0.0458788 -4.08424 -0.153605 -0.429352 0.0296323
183 1 2.89382 22.7594 2.25841 0.572942 -1.11899 -0.365379 0.149116 -4.11492 0.0232339 0.433164 0.852165
76 1 7.14056 21.2635 0.882659 -0.691281 0.193514 1.05787 0.361624 -4.00009 -0.0265517 0.991954 -0.207057
86 1 7.25436 24.2668 0.885223 -2.43118 3.29649 -1.15762 0.396162 -3.96368 -0.0327843 -0.170727 -0.298698
185 1 5.72509 22.8979 2.26336 3.67767 -2.14848 -3.35625 0.461822 -4.0882 0.353033 -1.05142 0.106393
187 1 8.47118 22.692 2.43056 -0.732136 -0.532565 -1.73565 0.56347 -4.08396 0.635364 -0.114707 -0.864038
78 1 9.92402 21.3232 0.82851 -2.14879 -1.2859 1.20999 0.211319 -4.09302 -0.288208 -0.0217069 1.03513
80 1 12.7264 21.3466 0.901642 -2.02506 0.894117 1.33119 0.06315 -4.03869 1.09308 -0.277288 -0.473693
88 1 9.99398 24.1702 0.924992 -1.34963 2.3224 -3.76156 0.192952 -4.11156 -0.496807 0.195674 -0.325871
90 1 12.8226 24.1983 0.796236 -3.32555 -1.34099 0.789537 0.175183 -4.05738 -0.531525 -0.0127261 0.563697
189 1 11.404 22.6532 2.28223 1.1462 2.87937 3.03823 0.281933 -4.00062 -0.019603 0.786814 0.0791771
92 1 1.49183 27.0716 0.872239 -1.55268 0.823337 -0.21304 0.0680987 -4.06592 0.10787 -0.55053 0.226144
93 1 2.95679 25.6072 -0.56345 -2.98218 -1.24306 2.03838 0.161447 -4.0973 0.0650469 0.433185 -0.537219
94 1 4.31233 27.0701 1.02627 -2.42482 -0.468398 -1.32983 0.634378 -4.00841 -0.227482 -0.124057 -0.470165
193 1 2.87926 25.4829 2.27285 -1.0862 0.475835 1.41936 0.401185 -4.02335 -0.177352 0.887059 -0.0303749
5 1 5.72241 28.2956 -0.504021 2.69086 -0.906142 0.0342517 0.557812 -4.06301 -0.200134 0.647419 -0.4252
107 1 8.62684 28.3911 2.37735 1.62718 -2.83475 -3.52836 0.289325 -4.11366 -0.190215 1.1935 -0.838144
96 1 7.19496 27.0059 0.874401 3.8854 -2.09663 -3.2721 0.0367639 -4.10744 -0.45165 -0.151174 0.0412584
195 1 5.7699 25.6353 2.28749 -1.7019 -1.17403 1.74296 0.123386 -4.0658 0.117519 -0.178384 0.578946
197 1 8.65402 25.6862 2.33896 -0.592902 -0.620959 0.00800132 0.313847 -4.10682 -0.788347 -0.38253 0.569407
7 1 8.51249 28.4072 -0.483463 0.305773 -1.36188 3.04787 0.320482 -4.0476 -0.0229346 0.318497 -0.798295
191 1 14.1954 25.5315 2.29648 -0.0885336 -4.4938 -0.48509 0.206327 -3.99416 0.771921 -0.0428546 -0.229383
98 1 9.85719 27.0277 0.831268 2.60699 4.64685 0.62246 0.386809 -4.14601 0.772503 -0.17155 0.237913
100 1 12.8111 27.1397 0.884762 0.688756 2.41483 -3.36628 0.109377 -4.06889 0.00830546 -0.702253 0.146355
199 1 11.3947 25.7747 2.3405 -1.77748 -0.753815 0.440887 0.57719 -4.02472 0.714816 -0.746362 0.131655
99 1 11.3966 25.6653 -0.521839 -3.11862 -0.640777 0.494149 0.135846 -4.08448 -0.208674 -0.086811 0.0410203
102 1 1.43258 1.58866 3.8298 7.38627 -3.29026 1.48818 0.291714 -4.09191 0.576693 0.0271565 -0.10977
104 1 4.40471 1.70471 3.74234 -2.62904 -0.431866 -2.50035 0.2239 -4.08924 -0.670952 0.410454 -0.266979
202 1 1.64591 1.56967 6.61641 2.02744 3.5456 -1.59179 0.58802 -4.06411 -0.979232 0.818459 0.363913
203 1 2.94499 0.259696 5.22455 -1.3304 -3.48688 0.0854903 0.126558 -4.10766 0.227549 0.210303 -0.51509
204 1 4.18458 1.68524 6.69509 -0.935437 1.48785 2.63114 4.31346 -4.07031 1.61692 -0.59462 -0.432618
213 1 2.88677 3.08084 5.19135 -2.28947 -0.845795 -1.07431 0.339531 -4.11561 0.132692 -0.0984159 0.179589
106 1 7.15632 1.63052 3.72774 0.736671 -1.16949 0.0239501 0.2283 -4.14 0.438597 0.72898 0.859764
205 1 5.64874 0.299036 5.09427 2.33469 0.995414 0.291621 0.542605 -4.00349 0.593821 -0.590896 1.52431
206 1 7.2548 1.68985 6.65778 -1.46106 -1.55409 1.7364 0.346452 -4.03589 -0.414536 -0.633849 0.270591
207 1 8.58474 0.236208 5.29803 1.31666 3.04051 1.49325 0.142066 -4.05546 0.38004 0.0622522 -0.64939
215 1 5.78167 2.95842 5.34877 -1.49422 -2.50707 3.51511 0.502121 -4.05452 -0.523156 0.107732 -0.525164
217 1 8.60442 3.0921 5.24699 -1.80041 2.92479 -5.24384 0.120533 -4.08964 -0.30521 -0.36267 -0.0440955
201 1 14.2143 0.277593 5.30155 -0.76465 1.66164 -3.30675 0.309123 -4.10494 0.121758 0.291983 0.0742766
211 1 14.1953 3.09372 5.35372 0.131749 -3.47244 0.658656 0.251719 -4.08035 0.093552 -0.24235 -0.420573
108 1 9.98023 1.81548 3.8507 1.78008 -0.0382443 0.481447 0.563402 -4.00751 0.049417 -1.51211 -0.146418
110 1 12.7567 1.63776 3.76356 0.143622 0.261967 0.471904 0.156437 -3.99629 0.34697 0.137069 0.810032
208 1 9.93587 1.5992 6.74384 -2.11946 3.54369 -4.60115 0.124171 -4.17854 0.561484 0.303468 -0.0621694
210 1 12.7168 1.62492 6.77122 1.93469 -2.84729 3.21644 0.35105 -4.04555 -0.139773 0.112728 -0.283276
219 1 11.4042 3.08595 5.27098 2.96876 -3.6 -0.306264 0.0650159 -4.0403 -0.358125 -0.124137 0.182321
112 1 1.47335 4.44722 3.91064 -2.08488 5.53109 1.88305 0.226456 -4.02826 0.214616 0.788358 -0.437622
114 1 4.45714 4.53943 3.92263 0.408107 -1.46821 1.68028 0.427147 -4.09597 -0.119925 -0.335462 -0.340248
122 1 1.5387 7.19477 3.87892 -2.178 2.10286 -1.52883 0.263808 -3.99497 -0.118844 0.19814 -0.0136276
124 1 4.30599 7.3213 3.85702 -1.70609 -0.894295 0.386355 0.156233 -3.99154 -0.125638 0.204507 0.0235101
212 1 1.5107 4.56417 6.7498 1.71349 1.1107 -0.37813 0.378105 -4.10309 0.367774 -0.758254 0.224425
214 1 4.35594 4.34938 6.76729 -3.60792 0.888428 1.10906 4.70599 -4.09502 0.156194 0.500016 -0.562292
222 1 1.54559 7.23945 6.72909 2.60978 -1.28947 -2.65909 0.155227 -4.11389 -0.22298 0.00310464 0.151556
223 1 3.00176 5.86832 5.30908 -2.9209 -3.41332 -1.19244 0.119451 -4.11198 0.111916 -0.293391 -0.0819907
224 1 4.45542 7.31972 6.76374 2.28078 -2.16034 3.83898 0.290699 -4.05325 -0.58052 0.0844482 -0.763168
116 1 7.08446 4.43511 3.85743 -0.717838 -0.661302 1.69127 5.01781 -4.10583 0.287745 0.41605 0.0194639
126 1 7.33953 7.39572 3.83714 1.37971 -3.46356 0.697126 0.484293 -3.99865 -0.610405 -0.799422 -0.590228
216 1 7.15048 4.45322 6.61778 0.663868 1.20315 1.59813 0.321058 -4.13951 -0.0488485 0.741046 0.119988
225 1 5.7941 6.05956 5.22698 0.299468 -1.75276 -1.18853 0.613746 -4.05218 -0.318588 -0.535307 0.42048
226 1 7.22143 7.27669 6.73177 -1.92098 2.73055 -2.00716 0.109595 -4.14255 0.070226 0.419364 -0.164223
227 1 8.61587 5.8789 5.23333 -0.532809 -0.371899 0.126652 0.127903 -4.05016 -0.299818 -0.279343 0.0324714
221 1 14.1524 5.86373 5.32265 0.796103 -1.93786 -0.0692733 0.123671 -4.07744 0.109597 0.134123 -0.232078
118 1 10.0291 4.4796 3.82174 -2.00022 0.251406 -1.34662 0.0986367 -4.13323 0.0233017 0.190449 -0.538718
120 1 12.7727 4.51546 3.76017 -2.93314 -0.0391201 0.674702 0.10726 -4.11604 0.389502 -0.494208 0.200278
128 1 10.0124 7.32217 3.77483 -2.7644 2.28321 3.1472 0.12208 -4.11418 -0.792995 0.0874303 0.425321
130 1 12.7448 7.26336 3.78052 -1.8326 -3.86476 -3.53257 0.155931 -4.1181 0.675561 0.0331346 0.29072
218 1 9.92391 4.44006 6.72616 2.54663 2.02038 1.45237 0.0874011 -4.12629 0.638662 0.130787 0.325142
220 1 12.7806 4.44772 6.71825 -0.879614 -1.25736 1.20844 0.0620792 -4.00993 0.242225 0.0737576 0.197661
228 1 9.92162 7.27115 6.80789 0.0778168 -0.255412 1.79302 0.251864 -4.10083 0.445699 0.0718599 -0.305618
229 1 11.2652 5.91426 5.30317 0.58398 1.74186 -1.1864 0.297124 -4.09902 0.713243 -0.000789658 0.291742
230 1 12.8446 7.35538 6.64615 2.31232 0.678649 1.21522 0.271223 -4.06837 -0.221542 -1.07606 0.429094
132 1 1.49806 10.2454 3.74222 0.926583 1.77752 2.20689 0.198381 -4.04106 -0.159821 -0.49469 0.505288
134 1 4.33421 10.2257 3.87431 -1.95039 -2.01599 -1.69927 0.271665 -4.04116 -0.159664 -0.899945 0.0830647
232 1 1.56015 10.1641 6.74495 2.12226 0.0705619 -0.681687 0.204958 -4.11185 -0.248028 -0.390325 -0.109492
233 1 2.86938 8.7146 5.32514 -0.683116 0.194601 5.31636 0.143284 -4.05693 0.539649 0.0762359 -0.430082
234 1 4.30212 10.2221 6.72417 -0.621179 0.157015 -0.123602 5.1775 -4.09631 0.769133 -0.539444 -0.0793488
241 1 0.149986 11.5192 5.22836 -2.41095 0.904273 -0.0212207 0.0905106 -4.07948 -0.304661 -0.106688 -0.124108
243 1 2.87755 11.525 5.17749 -0.234391 0.744033 0.670144 0.234512 -4.04972 -0.185645 0.036788 0.540823
136 1 7.34978 10.1327 3.8525 0.629619 0.98562 1.20116 0.359738 -4.09918 -0.633451 0.0332461 -0.370027
235 1 5.87066 8.81598 5.20059 0.465343 -1.43871 1.4062 0.368665 -4.0872 -0.459178 -0.377392 0.309208
236 1 7.13391 10.1574 6.75078 2.36863 -0.429749 -0.449581 0.256248 -4.13057 0.0976033 0.0124222 -0.0731036
237 1 8.63235 8.75913 5.41566 2.56455 0.935182 0.542097 0.346684 -4.13467 -0.367779 -0.0155077 -0.641598
245 1 5.87987 11.5851 5.26294 0.240801 -0.541356 -0.243051 0.422591 -4.0741 -0.207231 -0.32126 -0.0257076
247 1 8.6244 11.498 5.36833 0.432483 -3.51449 2.45946 0.189724 -4.1398 -0.0773548 0.6422 -0.240207
231 1 14.2058 8.74973 5.22736 -0.187028 1.52542 1.17023 0.0852439 -4.13462 0.763105 -0.35316 0.23153
138 1 9.92992 10.142 3.78782 -1.64946 -2.47072 4.24093 0.262218 -4.15417 0.840359 -0.447476 0.705841
140 1 12.8378 10.2224 3.79571 -3.06779 0.590986 0.953237 0.188116 -4.14089 -0.443645 -0.025373 0.362745
238 1 10.0462 10.0877 6.75012 4.00462 1.03455 -0.403308 0.138484 -4.04458 0.145685 0.204626 0.403276
239 1 11.364 8.67474 5.23448 1.07823 -1.10089 5.00007 0.0961277 -4.11233 0.504247 0.355579 -0.0416168
240 1 12.788 10.0949 6.57853 0.473313 1.12475 -2.36237 0.358519 -4.00842 0.17661 0.615285 1.12608
249 1 11.3994 11.5636 5.35791 0.00818624 4.09037 -1.73351 0.237302 -4.09423 -0.211578 -0.492739 -0.483082
142 1 1.52181 13.0509 3.89507 -1.28477 -4.17543 2.9049 0.339162 -4.13713 0.128463 -0.374852 -0.43297
144 1 4.29805 12.8216 3.7322 1.81958 -2.20134 0.0142737 4.69577 -4.07482 0.456151 0.606871 0.573627
152 1 1.51339 15.8576 3.87164 -0.669006 2.84052 -0.820189 5.09863 -4.17251 0.34048 -0.926198 -0.35447
154 1 4.25725 15.7179 3.78809 2.46855 -1.35996 -1.82568 0.303646 -4.07238 0.499024 0.349786 -0.596094
242 1 1.53992 12.9165 6.69422 0.280113 3.4737 -1.1283 0.115483 -4.15752 0.268411 -0.0112958 -0.00821061
244 1 4.24982 12.7782 6.72031 2.14938 -0.0921022 -0.749942 5.08295 -4.09804 0.0254994 0.842449 -0.423542
251 1 0.128475 14.4623 5.32492 2.68999 -0.1114 0.508103 0.219762 -4.0742 -0.378677 -0.492551 0.0986008
252 1 1.63436 15.7834 6.60842 -3.12021 0.366244 0.726554 0.447935 -4.02455 0.024602 -0.420646 0.483529
253 1 3.02926 14.3678 5.30021 0.643288 -2.70259 -2.00417 0.349019 -4.03736 -0.0911092 -0.384523 -0.0291065
254 1 4.32401 15.7314 6.81208 -3.29084 -1.84392 -1.68306 0.264121 -4.03828 0.175717 0.427097 -0.249569
146 1 7.13468 12.9886 3.80216 1.04428 0.1527 -2.62964 0.131157 -3.946 0.822239 -0.201681 0.328975
156 1 7.1141 15.8395 3.82854 -5.45427 -4.00032 2.42238 0.286502 -4.0564 -0.183526 0.140965 -0.14507
246 1 7.17912 12.9922 6.76403 0.991656 -1.68864 -0.448699 0.134635 -4.03786 0.625169 -0.200105 0.159722
255 1 5.79332 14.3612 5.21901 0.949383 2.2935 -3.25327 0.174555 -4.12187 -0.474592 0.0376569 0.544156
256 1 7.19239 15.8423 6.62961 -0.861153 0.781607 -0.146585 0.364632 -4.06018 0.354611 -0.68255 0.37999
257 1 8.60857 14.4287 5.31633 -2.00567 3.54744 2.76289 0.0719449 -4.08671 -0.438935 -0.789286 -0.717254
148 1 10.0789 12.8625 3.8975 2.53119 -0.204599 1.59625 0.296806 -4.04148 -0.748825 0.896518 -0.101376
150 1 12.8144 12.9078 3.86433 0.842405 -1.04171 -0.584461 0.154211 -4.14089 0.677146 0.321531 -0.226336
158 1 10.0599 15.8093 3.88082 1.95172 -4.28031 -2.67566 0.248303 -4.05548 0.352246 -0.0613197 -0.204809
160 1 12.7974 15.8078 3.78342 2.05154 2.79304 -0.0709358 0.183436 -4.09082 0.250866 -0.146233 0.824451
248 1 10.001 13.0598 6.7689 1.15591 3.93167 -3.97146 0.325454 -4.0443 0.163672 -0.0960809 -0.316484
250 1 12.9049 12.9601 6.67391 1.45982 -1.9964 -1.75047 0.250882 -4.10107 -0.274886 -0.0919073 0.470936
258 1 10.0849 15.781 6.73166 3.15439 -2.57917 -3.22034 0.183656 -4.1273 -0.276211 -0.51307 -0.0374451
259 1 11.5154 14.2983 5.26142 2.36546 0.76793 -0.871017 0.265543 -4.09608 -0.328569 0.776396 0.109634
260 1 12.7221 15.7462 6.75879 1.07372 0.97037 -2.70378 0.52517 -4.01718 0.680814 0.122996 0.120565
162 1 1.61205 18.4318 3.81465 0.103087 0.473685 0.329909 4.80933 -4.08463 0.0261018 0.690489 0.0848393
164 1 4.41893 18.6151 3.70359 -0.211573 3.22505 -5.20284 0.333316 -4.05968 -0.33337 -1.06572 0.655266
262 1 1.64124 18.6991 6.70927 -1.57751 0.894061 -4.43727 0.342178 -4.11656 -0.821782 -0.331618 0.171875
263 1 3.02324 17.1738 5.24843 -2.37006 -0.133771 0.32695 0.256052 -4.10305 0.0487007 0.185687 0.0937126
264 1 4.25569 18.5351 6.84989 2.99979 1.41468 -0.253245 0.468902 -4.06159 0.937793 0.586929 -0.265083
271 1 0.239882 19.931 5.15918 -2.9132 -1.24747 -1.34561 0.579849 -4.0668 -0.249166 0.264091 0.279711
273 1 3.06119 20.0027 5.26408 0.40391 -0.0741893 3.19324 0.353282 -4.10556 -0.430197 0.630447 -0.0341825
166 1 7.16241 18.5363 3.79685 0.698547 0.150344 -2.49931 0.166821 -4.1653 -0.0838859 0.0713886 0.0726071
265 1 5.71847 17.1429 5.38012 -1.6126 -0.82668 -3.54668 0.409139 -4.10139 -0.506254 0.111397 -0.359198
266 1 7.25348 18.553 6.63082 1.95445 3.37989 -0.145865 0.531191 -4.02416 -0.927954 -0.164894 0.0160836
267 1 8.63962 17.1234 5.1914 1.62128 1.24999 -1.44411 0.255316 -4.05381 -0.0908512 0.19508 0.740865
275 1 5.66392 19.9514 5.27018 0.0670137 -1.38317 -3.87798 0.295919 -4.09513 0.253117 -0.00973258 0.682026
277 1 8.52362 20.0544 5.25979 0.898333 -0.0775842 -0.479706 0.249938 -4.12677 0.637715 0.26232 0.20303
261 1 14.1769 17.1487 5.33836 3.22524 -0.724689 1.23685 0.349749 -4.12403 0.289755 0.322138 0.283409
168 1 9.9888 18.5753 3.83838 -3.61858 0.233632 -1.83299 0.194752 -4.06878 -0.431924 -0.333824 -0.307186
170 1 12.8038 18.6463 3.94114 0.900172 4.64776 -2.52583 0.315912 -4.09336 0.177396 -0.481727 -0.291317
268 1 9.90461 18.5053 6.82519 4.57801 -0.241298 0.328247 0.290996 -4.04689 0.276962 0.292926 -0.820377
269 1 11.4148 17.1891 5.44103 1.22914 3.37173 -1.05524 0.371505 -4.05786 0.606207 0.576584 -1.35255
270 1 12.909 18.7314 6.71437 -1.75346 -1.91228 -0.862528 0.524956 -4.07052 -0.224252 -0.488739 0.659825
279 1 11.3598 20.0486 5.23859 2.0114 -4.45816 0.994583 0.254337 -4.04873 -0.371875 0.0631742 0.427104
172 1 1.47279 21.4257 3.84138 2.33301 -0.225112 2.95214 0.267013 -4.09452 0.535216 0.119343 -0.0239288
174 1 4.32705 21.4567 3.69289 -1.27528 -0.710527 -1.51037 0.262217 -4.09515 0.0123548 -0.223072 0.302863
182 1 1.5749 24.1646 3.79527 -0.784188 -3.79054 -2.16947 0.0643597 -4.14242 -0.578754 0.232251 -0.00080436
184 1 4.3073 24.238 3.75392 -0.587332 0.565944 -1.32797 0.142524 -4.08116 0.0156865 -0.659043 0.091209
272 1 1.50093 21.4332 6.63647 -1.3891 0.701157 2.48604 0.356055 -4.12871 0.553141 -0.439229 0.665297
274 1 4.4257 21.4489 6.79309 2.59471 -0.91757 -0.537123 0.25541 -4.03048 -0.168451 0.0787254 -0.377774
281 1 0.183488 22.7914 5.32198 -2.74019 0.616667 0.622568 0.147385 -4.00821 -0.749605 0.376116 -0.633916
282 1 1.52472 24.1909 6.80077 -1.23117 0.365724 -0.651941 0.156804 -4.10252 0.761741 -0.184835 -0.953272
283 1 2.92311 22.8102 5.3392 1.18139 2.06881 4.32688 0.166347 -4.04459 0.850759 -0.0181113 -0.0670784
284 1 4.42474 24.2671 6.76936 -2.88227 1.45219 3.65201 0.159101 -4.03477 0.0117928 -0.473812 -0.430369
176 1 7.06694 21.3141 3.86144 -3.95137 -1.5893 -1.01736 0.386727 -4.06392 0.364618 -0.275295 -0.968497
186 1 7.17879 24.1447 3.70586 2.78581 2.06017 1.88695 0.185692 -4.00214 -0.0364717 0.948897 0.111669
276 1 7.10716 21.4372 6.7825 2.60993 -1.18025 -2.38511 0.235887 -4.06087 0.16133 -0.0477594 -0.0584919
285 1 5.85589 22.7635 5.13951 1.31531 1.02106 -0.50399 0.522962 -4.02663 -1.01957 1.36108 1.52679
286 1 7.16944 24.2408 6.76352 1.08031 -1.08147 0.839848 0.267815 -4.05261 -0.397288 -0.267683 -0.701414
287 1 8.6565 22.7436 5.18391 2.42 3.87829 -0.705154 0.326339 -4.21588 -0.336654 0.516386 0.403838
178 1 9.99102 21.4199 3.75849 -1.13098 -1.50552 3.15931 0.234203 -4.07842 0.451396 0.109288 -0.131504
180 1 12.8404 21.4228 3.88643 -0.471497 0.0061306 0.269058 0.282517 -4.20022 -0.119774 0.475254 0.319979
188 1 10.0407 24.0693 3.65624 -1.30348 -2.27273 0.479064 0.793879 -3.98015 0.0271245 1.08524 0.20944
190 1 12.925 24.1389 3.7684 -1.55903 -2.12372 1.13416 0.398267 -4.01566 -0.869588 0.386825 -0.101772
278 1 9.94955 21.4304 6.83179 1.38589 -0.978514 1.96516 0.309403 -4.00053 -0.302576 -0.933839 -0.843244
280 1 12.8739 21.3633 6.65004 1.61778 1.13426 1.57654 0.28409 -4.15748 -0.126589 0.0679546 0.277341
288 1 10.0194 24.1956 6.81302 2.68269 2.22443 1.78439 0.369805 -4.01971 -0.342434 -0.300249 -0.182313
289 1 11.3072 22.8471 5.26497 -3.96248 4.07387 -0.259648 0.483899 -4.1143 0.573247 -0.0912372 0.22311
290 1 12.8777 24.1232 6.70407 1.06046 -1.98762 3.24564 0.234735 -4.11418 -0.482661 0.246428 0.369317
192 1 1.54582 26.9795 3.82692 0.832332 -0.820942 0.130328 0.143689 -4.17261 -0.162414 0.345335 0.0127269
194 1 4.33343 27.1078 3.77166 -1.61671 -3.20912 1.28134 0.248156 -4.07966 -0.0190551 -0.364617 -0.622163
291 1 0.123486 25.6243 5.37822 -1.91934 -0.395923 -0.219087 0.362254 -4.01302 -0.11966 -0.0345814 -0.618599
292 1 1.58125 27.1181 6.62254 0.521729 -0.104332 -0.21211 0.255255 -4.14865 0.217311 -0.716924 -0.0536633
293 1 3.0799 25.6086 5.23801 2.80973 1.17343 -0.298043 0.378273 -4.01619 -0.978857 -0.0930325 0.552075
294 1 4.2495 27.1204 6.69689 -1.17778 2.9951 1.58236 0.249517 -4.06773 0.933757 -0.394712 -0.280365
196 1 7.3038 27.0489 3.90821 3.37805 -2.98627 4.17109 0.560839 -4.0293 -1.13865 -0.163271 -0.995041
295 1 5.73558 25.636 5.21791 2.43808 0.681994 -1.51506 0.152287 -4.11601 0.0496122 -0.0340674 0.397612
296 1 7.17419 27.0665 6.61274 0.309675 6.50899 -1.89168 0.237285 -3.98518 0.00490429 0.522746 -0.21271
297 1 8.56397 25.5256 5.26269 -0.134748 1.31643 -3.31811 0.339553 -4.12568 0.954281 -0.0152837 -0.108511
209 1 11.3537 28.3011 5.32727 -0.393176 -1.47754 0.78913 5.58049 -3.9913 0.953758 0.852737 -1.0289
198 1 9.95313 27.0869 3.71192 0.689763 -0.698924 -1.31982 0.290307 -3.91958 0.691181 -0.748282 1.04058
200 1 13.0099 27.0067 3.76387 5.30296 -0.270392 0.651806 5.22725 -4.01025 -0.850293 0.271444 0.174821
298 1 9.9521 27.1594 6.77193 1.28797 -2.74568 -4.13594 0.324054 -4.06429 -0.288846 -0.650309 0.687281
299 1 11.357 25.6421 5.30372 0.613569 6.18239 1.53807 5.84665 -4.03632 0.181851 -0.259817 -0.304256
300 1 12.9347 27.0657 6.76446 -0.577292 -1.28953 -3.83829 0.294006 -4.08751 -0.581318 0.131418 0.293354
301 1 0.190771 0.330155 8.05837 0.5675 -0.168496 -2.46061 4.69097 -4.13006 0.058659 -0.564318 0.340912
302 1 1.52998 1.64637 9.76901 -1.42736 -3.15682 0.972455 0.275093 -4.08476 0.320664 -0.322235 -0.250735
303 1 2.87995 0.257353 8.20677 0.341516 -0.0404191 -2.60214 0.179824 -4.11167 -0.08958 -0.182825 0.499236
304 1 4.29008 1.6221 9.61597 -4.04083 -0.468429 4.02966 0.149049 -4.05328 -0.0721889 0.514845 0.608642
311 1 0.149724 2.85167 8.19877 -1.74976 0.28104 0.763369 4.97148 -4.04171 -0.326305 1.78044 -0.276279
313 1 2.89377 2.99568 8.08946 0.148637 -0.416692 -0.495992 0.331438 -4.01249 -0.43506 0.511516 1.09459
403 1 2.9679 0.297361 11.15 0.394335 0.406084 2.23505 0.172737 -4.09292 -0.32316 -0.344211 -0.0628253
411 1 0.156785 3.04543 11.1063 0.660313 -0.658618 -1.38298 0.134558 -4.11804 -0.377444 0.687001 -0.190917
413 1 2.87494 3.0559 11.2125 -3.05234 -3.9865 -0.430171 0.318777 -4.13504 0.470331 0.115388 -0.695307
305 1 5.63949 0.272746 8.20261 -2.6762 0.601797 -1.53878 0.270084 -4.01649 0.938818 0.443947 -0.454326
306 1 7.16827 1.7968 9.64428 -0.497955 1.38302 -0.554626 0.422995 -3.95451 -0.686103 -1.25558 0.1947
307 1 8.54451 0.339894 8.24541 2.06573 -1.47317 -0.377265 0.310226 -4.10548 -0.507174 -0.843262 0.0506197
315 1 5.88369 2.98404 8.12197 0.746495 3.22544 0.384377 0.619281 -4.05141 -1.04003 0.265309 -0.0300939