ITEM: TIMESTEP
29250
ITEM: NUMBER OF ATOMS
2000
ITEM: BOX BOUNDS pp pp pp
1.0838953229856951e-01 1.4221610467701321e+01
2.1677906459713903e-01 2.8443220935402643e+01
-3.9206529552678293e-01 5.7712065295526344e+01
ITEM: ATOMS id type x y z vx vy vz c_csym c_peratom fx fy fz
2 1 1.62332 1.66863 1.06796 -0.282889 -3.25185 -0.636516 0.277375 -4.10042 -0.471896 0.0708262 -0.12715
4 1 4.35789 1.61575 0.997426 0.990702 -5.33602 3.45801 0.21897 -4.13753 0.0320237 -0.0056975 0.623656
11 1 0.115605 3.14255 -0.345134 0.617832 -0.194419 3.50607 0.204078 -4.06209 0.0268052 -0.124084 -0.175446
101 1 0.126621 0.284403 2.48664 -1.57173 1.46596 2.1275 0.151556 -4.10412 -0.0616227 0.106562 -0.1242
103 1 2.85007 0.270771 2.5449 0.287695 0.367304 -1.8153 0.237292 -4.00084 0.592961 0.0139849 -0.168517
111 1 0.168447 3.08626 2.5125 -2.2925 0.592843 0.179022 0.130309 -4.14596 -0.188877 0.205835 0.0840201
113 1 2.87763 3.13123 2.56674 -1.71434 2.42111 -1.1208 0.326311 -4.07605 -0.126351 -0.220724 0.156597
13 1 2.94284 3.10367 -0.373473 -0.0706192 -1.95523 0.774801 0.0716756 -4.032 -0.382064 0.00343124 -0.146982
6 1 7.17995 1.58532 1.06136 -1.53139 -1.81767 -2.43971 0.224992 -4.10093 0.104444 0.912852 0.0778966
17 1 8.63608 3.25517 -0.324419 -1.24355 -0.0988133 -0.860341 4.91784 -4.05827 -0.548404 -0.961938 -0.308721
105 1 5.90739 0.22905 2.51392 0.812795 -1.48127 -4.16198 0.293646 -4.07935 -0.552208 -0.37792 0.0456415
115 1 5.79048 3.13764 2.49951 -0.932742 0.818202 0.0439582 0.179556 -4.04511 -0.297482 -0.382584 -0.180166
117 1 8.60233 3.08029 2.57805 0.475293 0.415756 -1.302 0.15768 -4.06312 -0.210813 0.396013 -0.637654
15 1 5.86915 3.09703 -0.336241 -1.1078 -3.23994 -0.243916 0.288119 -4.01469 -0.35141 0.316317 -0.344776
8 1 9.98472 1.71462 0.948676 1.02028 2.64764 -1.65962 0.372265 -4.05313 -0.643131 -0.174295 1.4051
9 1 11.3244 0.287262 -0.293981 -0.628437 1.37052 0.162777 0.381492 -4.04766 1.35499 -0.474734 -0.330208
10 1 12.8557 1.68831 0.997944 -0.261261 2.58464 0.684826 0.130268 -4.03391 -0.463095 0.312011 0.594095
109 1 11.3921 0.306018 2.48469 4.17545 -4.26001 3.01885 0.166357 -4.0867 -0.413563 -0.536664 -0.206064
119 1 11.4562 3.11085 2.43185 -0.877516 0.612354 1.13148 0.149223 -4.10969 -0.282007 -0.314709 -0.10912
12 1 1.52356 4.6359 0.968096 1.18436 1.40208 1.05812 0.556101 -4.05444 0.150755 -0.225613 0.608573
14 1 4.34915 4.42365 1.15879 -0.761965 1.11821 -1.53086 0.268801 -4.0989 -0.270601 0.406533 -0.456427
22 1 1.54026 7.32431 0.994743 0.529166 1.27637 -0.648244 0.235474 -4.04134 0.0433175 -0.392122 0.869084
23 1 3.01689 5.92797 -0.365171 4.21453 0.286138 -0.65637 0.221284 -4.04454 -0.540644 -0.0185143 -0.0341485
24 1 4.35552 7.36387 1.06307 0.718611 1.41969 0.425215 0.104979 -4.02872 -0.241227 -0.0349269 -0.0728186
121 1 0.132435 5.82793 2.50572 -2.35864 3.10392 -0.471262 0.182702 -4.03741 0.215529 0.17064 -0.0322284
123 1 3.01618 5.86763 2.59843 1.00139 1.8653 -1.24788 0.251798 -4.13049 -0.447538 -0.0206547 -0.011426
16 1 7.14135 4.5226 1.13816 0.603539 0.154603 0.133915 0.150101 -4.05858 -0.239858 -0.398501 -0.113985
25 1 5.70759 5.92495 -0.277268 -0.827089 1.1553 2.35682 0.311388 -4.13918 -0.239005 -0.707971 -0.758151
26 1 7.1412 7.16975 1.01484 -0.0337704 2.62343 0.778117 0.521659 -3.93497 0.512559 1.50952 0.572676
125 1 5.74127 5.95799 2.54789 -0.136011 -2.75282 -0.154075 0.137678 -4.19408 0.263942 0.290492 -0.0717268
127 1 8.57446 5.88387 2.41608 -1.51658 -3.67076 0.00771245 0.350863 -4.09383 0.373163 -0.326818 0.557099
18 1 10.0587 4.47472 1.0645 2.01504 1.15568 0.108705 0.208549 -4.05455 0.0333352 0.204132 0.055574
20 1 12.7939 4.54238 1.03175 -0.022531 3.00342 -1.17168 0.0583794 -4.12006 0.256692 -0.203976 0.0713713
28 1 10.1169 7.35391 1.15134 1.08986 -1.21663 1.80841 0.397418 -4.02548 -0.761066 -0.243471 -0.479884
29 1 11.4127 5.98723 -0.374686 1.3822 1.47477 -0.555896 0.053394 -4.12243 -0.278451 -0.707131 -0.594039
30 1 12.8531 7.28188 1.12369 0.362699 -0.519128 0.486825 0.134251 -4.13994 -0.167694 0.372356 -0.150191
129 1 11.3642 5.90889 2.55485 -0.995542 1.01394 2.2528 0.107294 -4.10636 0.0520997 -0.116777 -0.446116
32 1 1.48279 10.1923 0.997197 2.66336 -1.18469 0.933482 0.215571 -4.12895 0.289977 -0.376623 0.599389
34 1 4.32744 10.195 0.998091 -3.42019 -1.92301 1.41173 0.18334 -4.0758 0.053308 -0.276809 0.524905
43 1 2.92107 11.628 -0.370197 2.17426 0.782241 3.50485 0.112442 -4.09594 0.189653 -0.618699 -0.169446
133 1 2.87707 8.77788 2.53827 -1.44944 0.975575 0.710255 0.0894527 -4.07448 0.498459 -0.274803 0.293055
141 1 0.146359 11.6297 2.42674 -2.20193 -7.04944 -1.51669 0.29755 -4.11501 0.136386 -0.0749113 0.738401
143 1 2.92416 11.521 2.51524 -0.572232 1.1909 1.77002 0.159169 -4.12089 -0.654208 0.36721 -0.127807
36 1 7.17897 10.1662 1.10918 0.10168 3.47717 0.174941 0.161278 -3.99209 0.323854 0.0877756 0.205989
47 1 8.63625 11.4798 -0.291327 -1.46078 2.66256 0.234251 0.274504 -4.0717 -0.31908 0.258463 -0.548472
135 1 5.71447 8.72482 2.61268 -0.880733 0.590278 -0.109653 0.278965 -4.08895 0.343171 0.307682 -0.55447
137 1 8.61908 8.74613 2.45203 -4.19951 1.4167 -2.48788 0.348355 -4.10889 -0.120349 0.0167781 -0.195734
145 1 5.78797 11.4174 2.51778 0.913579 -3.10787 0.676852 0.31362 -4.06579 -0.482202 0.72292 0.433931
147 1 8.63173 11.5707 2.6181 -2.52053 -2.66134 -2.016 0.181747 -4.08729 -0.382164 0.214261 -0.712623
37 1 8.64539 8.6808 -0.26218 -0.410704 1.96136 0.795798 0.351192 -4.13765 -0.474081 0.232348 -0.705862
41 1 14.1834 11.5242 -0.295162 -1.35835 -5.95404 3.83557 0.234293 -4.06376 -0.546696 0.377462 -0.462815
131 1 14.189 8.78043 2.63309 -1.59748 2.05417 3.03081 0.37805 -4.0189 0.906773 -0.669129 -0.692703
38 1 10.1092 10.2499 1.17606 0.647054 3.02786 -2.05404 0.490565 -4.07119 -1.17085 -0.668367 0.11957
39 1 11.3428 8.78317 -0.340848 2.80774 -0.622395 -1.00191 0.223011 -4.09349 0.647888 -0.227725 -0.161449
40 1 12.8549 10.1114 1.19316 -1.75728 -0.634733 -0.267602 0.232141 -4.09961 -0.361656 -0.295068 -0.905413
139 1 11.4119 8.69776 2.60017 -0.425376 2.4171 -0.0430739 0.106373 -4.09702 0.295135 0.621931 -0.330731
149 1 11.4267 11.5446 2.60104 -0.904464 -0.906018 0.248794 0.171519 -4.074 -0.136141 0.150427 -0.267594
49 1 11.351 11.4979 -0.312855 -3.94296 -1.72452 -3.57845 0.142019 -4.04551 0.470549 0.180905 -0.486308
42 1 1.60077 12.9976 0.981023 -0.841826 -0.173751 0.753914 0.414328 -4.08146 -0.679081 0.364147 0.312965
44 1 4.30049 12.9516 0.966132 -1.17519 0.372824 -0.13007 0.104948 -4.15308 0.803335 -0.209766 0.957929
52 1 1.58776 15.7356 1.20609 -0.585983 1.26946 1.71295 0.647496 -4.0059 -0.696509 -0.292191 -1.13799
54 1 4.38463 15.6552 1.05979 0.269637 0.959657 1.9614 0.263311 -4.08669 -0.694392 0.490715 -0.276822
153 1 2.9946 14.2978 2.52811 -3.03426 -0.361765 3.65674 0.163645 -4.0096 -0.145923 0.0617277 0.0255812
46 1 7.13899 12.8477 1.03567 -0.042375 -0.703018 -2.37022 0.220431 -4.04058 -0.0464752 0.680426 0.143525
56 1 7.08452 15.7726 0.982235 0.19616 0.505449 -1.21975 0.240239 -4.08554 0.402277 -0.44155 -0.183991
155 1 5.76502 14.3443 2.47231 -0.699273 2.50818 -2.71856 0.102377 -4.09982 0.0566042 0.096943 0.619958
157 1 8.53251 14.4644 2.55475 1.77519 1.9958 -4.01974 4.92982 -4.10742 -0.271518 -0.704625 -0.0645953
57 1 8.49816 14.3386 -0.254199 5.27468 2.46447 0.151665 0.469467 -4.00167 -0.00151142 0.152966 -0.823587
51 1 14.0057 14.3518 -0.391658 5.08997 3.62125 -2.07853 4.63104 -4.00769 1.51974 -0.0205081 -0.206245
151 1 14.2009 14.4155 2.53635 -4.71089 2.01634 -0.85659 0.118302 -4.01871 -0.176458 -0.544301 -0.211992
48 1 9.93985 13.0563 1.08537 2.86016 2.34417 0.701272 0.266575 -4.08698 0.341066 -0.677417 -0.060436
50 1 12.7181 12.9904 1.08272 0.559624 -1.36974 -0.820506 0.172623 -4.08913 0.199606 -0.115772 0.254331
58 1 9.99316 15.7186 1.06768 -3.3381 -1.51398 5.38263 0.164987 -4.08602 0.343854 0.408169 0.338886
60 1 12.7967 15.7437 1.0732 1.53771 1.90327 -4.70531 0.110003 -4.07693 -0.302919 0.356971 0.534628
159 1 11.3491 14.3264 2.58543 -0.265735 -1.65506 -3.98071 0.149625 -4.08134 0.61378 0.18956 -0.539059
62 1 1.43944 18.5161 1.10802 0.272627 0.831543 -0.200207 0.114966 -4.04277 0.0980477 0.155076 -0.0749916
64 1 4.38586 18.6552 1.1121 1.24428 1.0664 2.86252 5.00024 -4.03137 -0.174506 -0.870334 -0.155665
163 1 2.94245 17.1558 2.42542 0.341627 2.40032 0.506019 0.374515 -4.03946 0.452061 0.197477 0.275196
171 1 0.141802 19.9783 2.62186 -0.0590841 -1.37942 4.27312 0.16393 -4.13034 -0.218692 0.0101234 -0.77423
173 1 2.89555 19.9823 2.50661 0.785649 -1.23368 2.3689 0.14286 -4.12275 -0.759997 -0.439783 0.671532
66 1 7.24355 18.6165 1.11134 2.75597 -4.35103 0.905848 0.358343 -4.17228 -0.608686 -0.0119835 0.372868
67 1 8.57677 17.1461 -0.368474 -4.30079 -3.56988 1.31798 0.0495198 -4.1522 -0.0122009 -0.0116401 -0.0183961
165 1 5.78304 17.093 2.46349 1.97311 1.99329 -0.167527 0.234303 -4.05637 -0.0516217 0.316635 -0.0202411
167 1 8.56005 17.078 2.41157 1.63712 1.01306 -0.622391 0.526107 -4.0836 0.280829 0.0662511 0.587988
175 1 5.70632 20.007 2.53185 -3.42076 -2.85137 2.01629 0.130937 -4.06667 0.316928 -0.0611911 -0.0892042
177 1 8.58858 20.043 2.73185 -1.05917 0.80188 -0.731301 0.921168 -3.99966 -0.499495 -0.799454 -0.881297
75 1 5.71713 19.9361 -0.38288 -4.53949 -0.9021 2.29786 0.125098 -4.07899 -0.411418 0.0999156 -0.805449
65 1 5.67248 17.193 -0.345788 -1.31158 -3.63153 -0.620776 0.324211 -4.11618 0.733575 -0.0635375 0.147583
161 1 14.1852 17.2046 2.62695 -8.06951 -0.86164 0.0732044 0.206092 -4.13876 -0.271353 -0.18157 -0.50669
68 1 9.83757 18.5862 1.13698 1.01621 0.95189 3.77626 0.49563 -4.12336 0.548463 0.46647 -0.266647
70 1 12.7582 18.5098 1.09762 -2.75978 -0.241021 0.901339 0.153777 -4.02026 0.0383257 0.500483 -0.61942
169 1 11.4357 17.1907 2.52159 -0.050047 0.778513 1.36961 0.107691 -4.07742 -0.293111 0.102822 0.0946626
179 1 11.4548 19.9395 2.6047 0.478562 4.61523 -0.247094 0.242198 -4.10193 -0.216548 0.314844 -0.550159
69 1 11.3235 17.1806 -0.289188 2.51938 -0.439877 2.89062 0.203832 -4.09274 0.153446 -0.0569737 -0.73004
71 1 14.189 20.001 -0.282705 -3.02828 1.71166 0.793185 0.290763 -3.9679 0.130049 -0.62911 -0.510665
61 1 14.2026 17.0274 -0.321917 -2.79754 0.110739 5.17862 0.284384 -4.03366 0.0979194 0.192191 -0.0680944
72 1 1.54936 21.3951 1.0172 2.3338 -3.4761 -2.56089 0.169907 -4.14213 -0.539127 0.121627 0.12096
74 1 4.24289 21.3195 1.14319 -0.775897 2.76848 -0.309503 0.347862 -4.16921 0.303218 0.441806 -0.325196
82 1 1.5098 24.075 0.946762 -0.197856 1.54937 -4.05427 0.281801 -4.12565 -0.139831 0.598823 0.400922
84 1 4.24694 24.1216 1.08907 1.75243 2.83472 -4.12876 0.383602 -4.02099 0.482034 0.459127 -0.746027
181 1 0.128659 22.763 2.47161 -3.03311 -1.67311 -0.629939 0.0457024 -4.08589 -0.281482 -0.51864 0.166228
183 1 2.89382 22.7594 2.43043 0.572942 -1.11899 -0.365379 0.147542 -4.11688 0.179769 -0.0257789 0.802734
76 1 7.14056 21.2635 1.06364 -0.691281 0.193514 1.05787 0.360589 -4.00781 0.0724913 0.597494 -0.177701
86 1 7.25436 24.2668 1.06619 -2.43118 3.29649 -1.15762 0.3955 -3.96726 0.063187 -0.172528 -0.313891
185 1 5.72509 22.8979 2.43535 3.67767 -2.14848 -3.35625 0.460602 -4.09272 0.421718 -1.07772 0.342597
187 1 8.47118 22.692 2.60146 -0.732136 -0.532565 -1.73565 0.560049 -4.08937 0.478213 0.0279891 -0.613891
78 1 9.92402 21.3232 1.00984 -2.14879 -1.2859 1.20999 0.209865 -4.09754 0.0480964 0.135517 0.712432
80 1 12.7264 21.3466 1.0825 -2.02506 0.894117 1.33119 0.0629991 -4.04299 1.18036 -0.00208996 -0.530263
88 1 9.99398 24.1702 1.1057 -1.34963 2.3224 -3.76156 0.191565 -4.1185 -0.581022 0.273952 0.197802
90 1 12.8226 24.1983 0.97778 -3.32555 -1.34099 0.789537 0.174391 -4.06518 -0.712274 0.110604 0.522639
189 1 11.404 22.6532 2.45409 1.1462 2.87937 3.03823 0.281126 -4.00526 -0.0609257 1.13857 0.31862
92 1 1.49183 27.0716 1.05329 -1.55268 0.823337 -0.21304 0.0679806 -4.0732 -0.127714 -0.0878018 0.300355
93 1 2.95679 25.6072 -0.373046 -2.98218 -1.24306 2.03838 0.160334 -4.10501 0.0433615 0.320213 -0.230951
94 1 4.31233 27.0701 1.20632 -2.42482 -0.468398 -1.32983 0.628806 -4.01246 -0.350163 -0.0780097 -0.668984
193 1 2.87926 25.4829 2.44477 -1.0862 0.475835 1.41936 0.399645 -4.02839 -0.235275 1.02654 0.0826549
5 1 5.72241 28.2956 -0.314004 2.69086 -0.906142 0.0342517 0.555942 -4.06719 -0.165525 0.725569 -0.409858
107 1 8.62684 28.3911 2.54859 1.62718 -2.83475 -3.52836 0.288392 -4.11498 -0.10354 1.01312 -0.747186
96 1 7.19496 27.0059 1.05544 3.8854 -2.09663 -3.2721 0.0365698 -4.11024 -0.108172 0.133504 0.302158
195 1 5.7699 25.6353 2.45932 -1.7019 -1.17403 1.74296 0.122184 -4.07532 0.18875 0.196121 0.271135
197 1 8.65402 25.6862 2.51045 -0.592902 -0.620959 0.00800132 0.31291 -4.10929 -0.53526 -0.914685 0.568067
7 1 8.51249 28.4072 -0.293581 0.305773 -1.36188 3.04787 0.318004 -4.05082 -0.286339 0.277383 -0.781289
191 1 14.1954 25.5315 2.46825 -0.0885336 -4.4938 -0.48509 0.206134 -3.99887 0.349065 0.323746 -0.241363
98 1 9.85719 27.0277 1.01258 2.60699 4.64685 0.62246 0.385352 -4.14685 0.701955 -0.344339 -0.133144
100 1 12.8111 27.1397 1.06573 0.688756 2.41483 -3.36628 0.109221 -4.07442 0.0891505 -0.34326 0.246604
199 1 11.3947 25.7747 2.51198 -1.77748 -0.753815 0.440887 0.576461 -4.03112 0.739757 -0.380127 0.0329976
99 1 11.3966 25.6653 -0.331707 -3.11862 -0.640777 0.494149 0.135354 -4.08746 0.0893086 -0.34376 0.356851
102 1 1.43258 1.58866 3.99158 7.38627 -3.29026 1.48818 0.291216 -4.09221 0.0031987 0.0166598 0.113372
104 1 4.40471 1.70471 3.90469 -2.62904 -0.431866 -2.50035 0.223075 -4.09572 -0.738168 0.397282 -0.542949
202 1 1.64591 1.56967 6.76003 2.02744 3.5456 -1.59179 0.585826 -4.06374 -1.08375 0.916511 0.761359
203 1 2.94499 0.259696 5.37724 -1.3304 -3.48688 0.0854903 0.126271 -4.10885 0.06585 0.100946 -0.28134
204 1 4.18458 1.68524 6.83821 -0.935437 1.48785 2.63114 4.28947 -4.07388 1.48336 -0.688354 -0.463677
213 1 2.88677 3.08084 5.34426 -2.28947 -0.845795 -1.07431 0.337815 -4.12028 0.122635 -0.0789869 -0.0436488
106 1 7.15632 1.63052 3.89019 0.736671 -1.16949 0.0239501 0.226711 -4.143 0.859597 0.755768 0.693646
205 1 5.64874 0.299036 5.24781 2.33469 0.995414 0.291621 0.538532 -4.00832 0.775162 -0.350198 1.40089
206 1 7.2548 1.68985 6.80113 -1.46106 -1.55409 1.7364 0.344943 -4.03934 -0.667506 -0.41213 0.308447
207 1 8.58474 0.236208 5.45024 1.31666 3.04051 1.49325 0.141011 -4.06045 0.330051 0.321815 -0.61268
215 1 5.78167 2.95842 5.50065 -1.49422 -2.50707 3.51511 0.499658 -4.05751 -0.346172 0.316307 -0.369872
217 1 8.60442 3.0921 5.39954 -1.80041 2.92479 -5.24384 0.120352 -4.09179 -0.224049 0.000551019 0.392617
201 1 14.2143 0.277593 5.45374 -0.76465 1.66164 -3.30675 0.307865 -4.10968 -0.219094 -0.0397729 -0.220397
211 1 14.1953 3.09372 5.50557 0.131749 -3.47244 0.658656 0.249469 -4.08923 0.341441 -0.353061 -0.582941
108 1 9.98023 1.81548 4.01234 1.78008 -0.0382443 0.481447 0.562824 -4.01243 0.148466 -1.07041 0.1358
110 1 12.7567 1.63776 3.92577 0.143622 0.261967 0.471904 0.155864 -4.00296 0.361615 -0.0634026 0.816524
208 1 9.93587 1.5992 6.88663 -2.11946 3.54369 -4.60115 0.124139 -4.18303 0.413688 0.144663 -0.21511
210 1 12.7168 1.62492 6.91383 1.93469 -2.84729 3.21644 0.350402 -4.04986 0.183664 -0.230058 -0.357109
219 1 11.4042 3.08595 5.42337 2.96876 -3.6 -0.306264 0.0649185 -4.04535 0.100928 0.113213 0.150941
112 1 1.47335 4.44722 4.07189 -2.08488 5.53109 1.88305 0.224781 -4.03162 0.0824064 0.925932 -0.529634
114 1 4.45714 4.53943 4.08381 0.408107 -1.46821 1.68028 0.42488 -4.09811 -0.340106 -0.711602 -0.324635
122 1 1.5387 7.19477 4.04038 -2.178 2.10286 -1.52883 0.263482 -4.00078 -0.319301 0.549694 -0.252007
124 1 4.30599 7.3213 4.01863 -1.70609 -0.894295 0.386355 0.155931 -3.99287 0.292575 0.482687 -0.121018
212 1 1.5107 4.56417 6.89255 1.71349 1.1107 -0.37813 0.377766 -4.10689 0.118101 -0.785065 0.128094
214 1 4.35594 4.34938 6.90993 -3.60792 0.888428 1.10906 4.68493 -4.10165 0.0781736 0.595173 -0.746042
222 1 1.54559 7.23945 6.87198 2.60978 -1.28947 -2.65909 0.154952 -4.11744 -0.0925978 -0.280371 -0.137018
223 1 3.00176 5.86832 5.46122 -2.9209 -3.41332 -1.19244 0.119383 -4.11674 -0.0135579 0.14369 -0.278057
224 1 4.45542 7.31972 6.9064 2.28078 -2.16034 3.83898 0.289652 -4.05681 -1.10547 0.309921 -0.378042
116 1 7.08446 4.43511 4.01903 -0.717838 -0.661302 1.69127 0.354361 -4.11063 0.465742 0.567729 -0.204213
126 1 7.33953 7.39572 3.99887 1.37971 -3.46356 0.697126 0.483064 -4.00429 -0.346157 -0.457885 -0.294203
216 1 7.15048 4.45322 6.76139 0.663868 1.20315 1.59813 0.318646 -4.14362 0.0703947 0.531375 0.4904
225 1 5.7941 6.05956 5.37966 0.299468 -1.75276 -1.18853 0.612561 -4.05605 -0.310108 -0.568075 0.0682856
226 1 7.22143 7.27669 6.87464 -1.92098 2.73055 -2.00716 0.109393 -4.14707 -0.106998 -0.00454147 -0.068426
227 1 8.61587 5.8789 5.38596 -0.532809 -0.371899 0.126652 0.1271 -4.05292 0.0164199 -0.0941449 0.0270368
221 1 14.1524 5.86373 5.4747 0.796103 -1.93786 -0.0692733 0.123051 -4.08015 0.0171338 -0.0377454 -0.750322
118 1 10.0291 4.4796 3.98357 -2.00022 0.251406 -1.34662 0.0980687 -4.13706 -0.23449 0.410927 -0.514683
120 1 12.7727 4.51546 3.92241 -2.93314 -0.0391201 0.674702 0.106305 -4.12243 -0.160476 -0.476193 0.328501
128 1 10.0124 7.32217 3.93696 -2.7644 2.28321 3.1472 0.121024 -4.11784 -0.785328 0.121567 -0.0360476
130 1 12.7448 7.26336 3.94262 -1.8326 -3.86476 -3.53257 0.154881 -4.12173 0.837334 0.101029 0.410491
218 1 9.92391 4.44006 6.86907 2.54663 2.02038 1.45237 0.0872481 -4.13027 0.205299 0.0300746 0.0725414
220 1 12.7806 4.44772 6.86121 -0.879614 -1.25736 1.20844 0.0618416 -4.0157 -0.311395 -0.0217242 0.0407402
228 1 9.92162 7.27115 6.95026 0.0778168 -0.255412 1.79302 0.250753 -4.10481 0.242627 0.117095 0.0392494
229 1 11.2652 5.91426 5.45535 0.58398 1.74186 -1.1864 0.296561 -4.10248 1.21742 0.100484 0.146899
230 1 12.8446 7.35538 6.78958 2.31232 0.678649 1.21522 0.270518 -4.07234 -0.588207 -0.664826 -0.0779485
132 1 1.49806 10.2454 3.90457 0.926583 1.77752 2.20689 0.197692 -4.04315 -0.158071 -0.546654 0.672397
134 1 4.33421 10.2257 4.0358 -1.95039 -2.01599 -1.69927 0.270645 -4.04673 0.170488 -0.614618 -0.250779
232 1 1.56015 10.1641 6.88774 2.12226 0.0705619 -0.681687 0.203932 -4.11512 -0.217738 -0.0468681 -0.331098
233 1 2.86938 8.7146 5.47718 -0.683116 0.194601 5.31636 0.142925 -4.06669 0.095213 -0.0226918 -0.858994
234 1 4.30212 10.2221 6.86709 -0.621179 0.157015 -0.123602 5.15211 -4.10291 0.675081 -0.229434 0.151658
241 1 0.149986 11.5192 5.38102 -2.41095 0.904273 -0.0212207 0.0901688 -4.08171 -0.105202 0.0532607 -0.0713904
243 1 2.87755 11.525 5.33049 -0.234391 0.744033 0.670144 0.232668 -4.0515 0.0985407 -0.0642858 0.350341
136 1 7.34978 10.1327 4.01413 0.629619 0.98562 1.20116 0.359169 -4.10074 -0.819732 0.504976 -0.182918
235 1 5.87066 8.81598 5.35344 0.465343 -1.43871 1.4062 0.366632 -4.09158 -0.411356 -0.717055 0.0663406
236 1 7.13391 10.1574 6.89353 2.36863 -0.429749 -0.449581 0.255508 -4.13288 0.100807 0.187608 0.291022
237 1 8.63235 8.75913 5.56711 2.56455 0.935182 0.542097 0.343055 -4.13667 -0.376855 -0.154242 -0.608612
245 1 5.87987 11.5851 5.41538 0.240801 -0.541356 -0.243051 0.422374 -4.0782 -0.445068 -0.0592031 -0.315897
247 1 8.6244 11.498 5.52008 0.432483 -3.51449 2.45946 0.188565 -4.14352 -0.0121092 0.744026 0.0195351
231 1 14.2058 8.74973 5.38004 -0.187028 1.52542 1.17023 0.0850578 -4.13991 0.449562 -0.0811148 0.0616839
138 1 9.92992 10.142 3.94988 -1.64946 -2.47072 4.24093 0.260434 -4.15673 0.906346 0.0398804 0.275832
140 1 12.8378 10.2224 3.95771 -3.06779 0.590986 0.953237 0.187186 -4.14554 -0.60323 -0.343972 0.286594
238 1 10.0462 10.0877 6.89287 4.00462 1.03455 -0.403308 0.137983 -4.04885 0.253318 0.154555 0.414264
239 1 11.364 8.67474 5.38711 1.07823 -1.10089 5.00007 0.0956534 -4.11557 0.500752 0.0703461 -0.162573
240 1 12.788 10.0949 6.7224 0.473313 1.12475 -2.36237 0.355126 -4.01456 0.559857 0.759134 1.26962
249 1 11.3994 11.5636 5.50973 0.00818624 4.09037 -1.73351 0.235286 -4.09732 -0.59629 -0.246915 -0.319826
142 1 1.52181 13.0509 4.05642 -1.28477 -4.17543 2.9049 0.336909 -4.14334 0.272007 -0.238793 -0.168395
144 1 4.29805 12.8216 3.89462 1.81958 -2.20134 0.0142737 4.67527 -4.08125 0.471942 0.96244 0.638582
152 1 1.51339 15.8576 4.03314 -0.669006 2.84052 -0.820189 5.07273 -4.17733 0.475554 -0.81309 -0.318767
154 1 4.25725 15.7179 3.95014 2.46855 -1.35996 -1.82568 0.303158 -4.07751 1.02639 0.509561 -0.140702
242 1 1.53992 12.9165 6.83734 0.280113 3.4737 -1.1283 0.114633 -4.16434 -0.0888348 0.252796 0.10734
244 1 4.24982 12.7782 6.86325 2.14938 -0.0921022 -0.749942 5.05581 -4.10355 0.00849948 0.878292 -0.047919
251 1 0.128475 14.4623 5.47696 2.68999 -0.1114 0.508103 0.218828 -4.08007 -0.177138 -0.154424 0.139429
252 1 1.63436 15.7834 6.7521 -3.12021 0.366244 0.726554 0.443836 -4.02889 -0.0722581 -0.283686 0.922914
253 1 3.02926 14.3678 5.4524 0.643288 -2.70259 -2.00417 0.347812 -4.04052 -0.438454 -0.173043 -0.106246
254 1 4.32401 15.7314 6.95443 -3.29084 -1.84392 -1.68306 0.261287 -4.04081 0.120762 0.595552 -0.457887
146 1 7.13468 12.9886 3.96412 1.04428 0.1527 -2.62964 0.130986 -3.95132 0.906648 -0.632658 0.180373
156 1 7.1141 15.8395 3.99033 -5.45427 -4.00032 2.42238 0.285457 -4.05828 0.0376923 0.130403 -0.0966184
246 1 7.17912 12.9922 6.9067 0.991656 -1.68864 -0.448699 0.134008 -4.04197 0.6698 -0.0421498 -0.0146254
255 1 5.79332 14.3612 5.37174 0.949383 2.2935 -3.25327 0.173748 -4.13076 -0.53496 0.127021 0.108033
256 1 7.19239 15.8423 6.77315 -0.861153 0.781607 -0.146585 0.362105 -4.0598 0.678294 -0.901755 0.227814
257 1 8.60857 14.4287 5.46842 -2.00567 3.54744 2.76289 0.0716553 -4.09358 -0.395974 -0.398898 -0.425957
148 1 10.0789 12.8625 4.05884 2.53119 -0.204599 1.59625 0.296639 -4.04566 -0.674059 0.709632 -0.295539
150 1 12.8144 12.9078 4.02589 0.842405 -1.04171 -0.584461 0.153519 -4.1447 0.612722 0.668252 -0.267731
158 1 10.0599 15.8093 4.04227 1.95172 -4.28031 -2.67566 0.246935 -4.06105 0.400451 -0.621416 -0.253609
160 1 12.7974 15.8078 3.94551 2.05154 2.79304 -0.0709358 0.181797 -4.09651 0.243263 -0.0516486 0.674631
248 1 10.001 13.0598 6.91153 1.15591 3.93167 -3.97146 0.325036 -4.04639 0.278915 -0.294866 0.0143415
250 1 12.9049 12.9601 6.81716 1.45982 -1.9964 -1.75047 0.248797 -4.10455 -0.118166 -0.355882 0.101479
258 1 10.0849 15.781 6.87453 3.15439 -2.57917 -3.22034 0.183175 -4.12991 -0.221331 -0.636179 0.335791
259 1 11.5154 14.2983 5.41387 2.36546 0.76793 -0.871017 0.265218 -4.09976 -0.434592 0.28926 0.467005
260 1 12.7221 15.7462 6.90149 1.07372 0.97037 -2.70378 0.524213 -4.01976 0.940943 -0.0147441 -0.0159765
162 1 1.61205 18.4318 3.97653 0.103087 0.473685 0.329909 4.78235 -4.08929 -0.116322 0.504995 0.461314
164 1 4.41893 18.6151 3.8662 -0.211573 3.22505 -5.20284 0.331093 -4.06196 -0.656403 -0.927554 0.196903
262 1 1.64124 18.6991 6.85229 -1.57751 0.894061 -4.43727 0.341839 -4.12159 -0.87172 -0.38755 -0.0843469
263 1 3.02324 17.1738 5.40097 -2.37006 -0.133771 0.32695 0.254734 -4.10618 -0.0543016 0.408836 0.533931
264 1 4.25569 18.5351 6.992 2.99979 1.41468 -0.253245 0.465766 -4.06282 0.847577 0.452814 -0.679882
271 1 0.239882 19.931 5.3123 -2.9132 -1.24747 -1.34561 0.576967 -4.06716 0.127741 -0.152166 0.528549
273 1 3.06119 20.0027 5.41651 0.40391 -0.0741893 3.19324 0.352188 -4.1117 -0.557588 0.325994 -0.217125
166 1 7.16241 18.5363 3.95884 0.698547 0.150344 -2.49931 0.165109 -4.1732 -0.180471 -0.215189 -0.0816668
265 1 5.71847 17.1429 5.5318 -1.6126 -0.82668 -3.54668 0.404873 -4.10626 -0.40357 0.126473 -0.52393
266 1 7.25348 18.553 6.77435 1.95445 3.37989 -0.145865 0.52831 -4.02974 -0.9027 0.388912 0.324069
267 1 8.63962 17.1234 5.34431 1.62128 1.24999 -1.44411 0.253777 -4.05867 -0.413463 0.131876 0.368862
275 1 5.66392 19.9514 5.42258 0.0670137 -1.38317 -3.87798 0.29486 -4.1003 0.129351 -0.262192 0.463961
277 1 8.52362 20.0544 5.41225 0.898333 -0.0775842 -0.479706 0.249067 -4.13104 0.343124 -0.0529174 0.65927
261 1 14.1769 17.1487 5.49031 3.22524 -0.724689 1.23685 0.348853 -4.12806 0.0312529 0.481956 0.191794
168 1 9.9888 18.5753 4.0001 -3.61858 0.233632 -1.83299 0.192765 -4.07583 -0.364511 -0.150621 -0.126257
170 1 12.8038 18.6463 4.10219 0.900172 4.64776 -2.52583 0.313491 -4.09606 -0.03985 -0.766856 -0.430253
268 1 9.90461 18.5053 6.96745 4.57801 -0.241298 0.328247 0.289209 -4.05223 0.335262 0.579033 -0.365114
269 1 11.4148 17.1891 5.59231 1.22914 3.37173 -1.05524 0.367842 -4.06053 0.450934 0.888315 -1.14514
270 1 12.909 18.7314 6.85735 -1.75346 -1.91228 -0.862528 0.523594 -4.07559 -0.366897 -0.68522 0.733927
279 1 11.3598 20.0486 5.39119 2.0114 -4.45816 0.994583 0.252485 -4.0544 -0.546569 -0.0019853 0.628712
172 1 1.47279 21.4257 4.00309 2.33301 -0.225112 2.95214 0.265757 -4.09847 0.860627 0.0423255 -0.352867
174 1 4.32705 21.4567 3.85556 -1.27528 -0.710527 -1.51037 0.260309 -4.09833 -0.223044 0.0748219 0.418059
182 1 1.5749 24.1646 3.95727 -0.784188 -3.79054 -2.16947 0.0642694 -4.14971 -0.752462 0.433241 0.502556
184 1 4.3073 24.238 3.91619 -0.587332 0.565944 -1.32797 0.142208 -4.08496 0.520656 -0.381812 -0.0481567
272 1 1.50093 21.4332 6.77996 -1.3891 0.701157 2.48604 0.353503 -4.13079 0.590065 -0.214851 1.06373
274 1 4.4257 21.4489 6.93556 2.59471 -0.91757 -0.537123 0.253766 -4.03407 0.243585 -0.177653 -0.614994
281 1 0.183488 22.7914 5.47404 -2.74019 0.616667 0.622568 0.14598 -4.00988 -0.707529 0.580413 -0.571403
282 1 1.52472 24.1909 6.94319 -1.23117 0.365724 -0.651941 0.15585 -4.10789 1.08719 0.133442 -0.549405
283 1 2.92311 22.8102 5.49115 1.18139 2.06881 4.32688 0.164662 -4.05044 0.647052 -0.224563 -0.0989954
284 1 4.42474 24.2671 6.91199 -2.88227 1.45219 3.65201 0.15779 -4.04074 0.274706 -0.332317 -0.111176
176 1 7.06694 21.3141 4.02301 -3.95137 -1.5893 -1.01736 0.385783 -4.06505 0.208776 -0.424103 -0.599197
186 1 7.17879 24.1447 3.86844 2.78581 2.06017 1.88695 0.18469 -4.00631 -0.142771 0.599998 0.22944
276 1 7.10716 21.4372 6.92504 2.60993 -1.18025 -2.38511 0.234589 -4.06558 0.1474 0.039191 -0.472697
285 1 5.85589 22.7635 5.29275 1.31531 1.02106 -0.50399 0.519458 -4.03115 -1.21221 1.41111 1.12975
286 1 7.16944 24.2408 6.90618 1.08031 -1.08147 0.839848 0.265079 -4.05737 -0.306111 -0.717774 -0.727704
287 1 8.6565 22.7436 5.33687 2.42 3.87829 -0.705154 0.324369 -4.22207 -0.706947 0.663553 0.824969
178 1 9.99102 21.4199 3.92073 -1.13098 -1.50552 3.15931 0.232515 -4.07803 1.01643 0.146152 -0.128377
180 1 12.8404 21.4228 4.04784 -0.471497 0.0061306 0.269058 0.280331 -4.2037 -0.0735447 -0.0301215 0.27738
188 1 10.0407 24.0693 3.81915 -1.30348 -2.27273 0.479064 0.78918 -3.98327 -0.177982 1.13429 -0.0176276
190 1 12.925 24.1389 3.93058 -1.55903 -2.12372 1.13416 0.397798 -4.02317 -0.955722 0.424274 0.108719
278 1 9.94955 21.4304 6.97401 1.38589 -0.978514 1.96516 0.30603 -4.00221 -0.220577 -1.08901 -0.72141
280 1 12.8739 21.3633 6.79345 1.61778 1.13426 1.57654 0.282346 -4.16373 -0.157933 0.145466 0.326036
288 1 10.0194 24.1956 6.95536 2.68269 2.22443 1.78439 0.36638 -4.02178 -0.665492 -0.325864 0.125111
289 1 11.3072 22.8471 5.4174 -3.96248 4.07387 -0.259648 0.482753 -4.11903 0.100578 -0.394624 0.271776
290 1 12.8777 24.1232 6.84712 1.06046 -1.98762 3.24564 0.234292 -4.11953 -0.647695 0.453145 0.419282
192 1 1.54582 26.9795 3.98872 0.832332 -0.820942 0.130328 0.143121 -4.18091 0.05075 0.413414 0.0655716
194 1 4.33343 27.1078 3.93382 -1.61671 -3.20912 1.28134 0.247692 -4.08422 -0.491177 -0.540909 -0.332838
291 1 0.123486 25.6243 5.52991 -1.91934 -0.395923 -0.219087 0.358878 -4.01617 0.0373426 -0.36961 -0.998013
292 1 1.58125 27.1181 6.76612 0.521729 -0.104332 -0.21211 0.252983 -4.15502 -0.0428109 -0.864294 0.168406
293 1 3.0799 25.6086 5.39062 2.80973 1.17343 -0.298043 0.377833 -4.02111 -1.03336 0.210237 0.379448
294 1 4.2495 27.1204 6.83999 -1.17778 2.9951 1.58236 0.249083 -4.07382 0.551155 -0.0743571 -0.166958
196 1 7.3038 27.0489 4.06948 3.37805 -2.98627 4.17109 0.557025 -4.03404 -1.26606 -0.342957 -0.740094
295 1 5.73558 25.636 5.37065 2.43808 0.681994 -1.51506 0.151323 -4.12351 0.16009 0.117568 0.169229
296 1 7.17419 27.0665 6.75638 0.309675 6.50899 -1.89168 0.235601 -3.98769 -0.0453332 0.827395 0.243537
297 1 8.56397 25.5256 5.41514 -0.134748 1.31643 -3.31811 0.338139 -4.13382 0.847556 0.0274969 -0.0730922
209 1 11.3537 28.3011 5.4793 -0.393176 -1.47754 0.78913 0.766101 -3.99792 0.959441 1.09255 -0.937195
198 1 9.95313 27.0869 3.87447 0.689763 -0.698924 -1.31982 0.287786 -3.92063 0.273694 -0.331317 1.18659
200 1 13.0099 27.0067 3.92607 5.30296 -0.270392 0.651806 5.20282 -4.0145 -0.756154 0.15139 0.142304
298 1 9.9521 27.1594 6.91454 1.28797 -2.74568 -4.13594 0.323637 -4.06489 -0.804724 -0.971387 0.539355
299 1 11.357 25.6421 5.4559 0.613569 6.18239 1.53807 0.318607 -4.04662 0.457215 0.0859044 -0.269388
300 1 12.9347 27.0657 6.90712 -0.577292 -1.28953 -3.83829 0.29312 -4.09227 -0.801117 0.146509 0.104276
301 1 0.190771 0.330155 8.1926 0.5675 -0.168496 -2.46061 4.67122 -4.13314 0.334751 -0.142634 0.300346
302 1 1.52998 1.64637 9.8921 -1.42736 -3.15682 0.972455 0.272107 -4.08811 0.068384 -0.441893 -0.19879
303 1 2.87995 0.257353 8.34003 0.341516 -0.0404191 -2.60214 0.17918 -4.11458 0.114031 -0.50723 0.249124
304 1 4.29008 1.6221 9.74005 -4.04083 -0.468429 4.02966 0.148321 -4.05987 -0.0229417 0.727149 0.149377
311 1 0.149724 2.85167 8.33208 -1.74976 0.28104 0.763369 4.95102 -4.0487 -0.0927378 1.54023 -0.424247
313 1 2.89377 2.99568 8.22349 0.148637 -0.416692 -0.495992 0.32899 -4.01682 -0.367339 0.351508 1.06184
403 1 2.9679 0.297361 11.2641 0.394335 0.406084 2.23505 0.172174 -4.097 0.014964 -0.623452 -0.144524
411 1 0.156785 3.04543 11.2207 0.660313 -0.658618 -1.38298 0.13363 -4.12327 -0.801668 0.65511 -0.20317
413 1 2.87494 3.0559 11.3262 -3.05234 -3.9865 -0.430171 0.315532 -4.13906 0.238962 0.384748 -0.558896
305 1 5.63949 0.272746 8.3359 -2.6762 0.601797 -1.53878 0.26954 -4.02578 1.19292 0.394354 -0.566397
306 1 7.16827 1.7968 9.76818 -0.497955 1.38302 -0.554626 0.422623 -3.955 -0.221218 -1.49523 0.277433
307 1 8.54451 0.339894 8.37842 2.06573 -1.47317 -0.377265 0.308524 -4.10986 -0.0895066 -0.719668 -0.140433
315 1 5.88369 2.98404 8.25578 0.746495 3.22544 0.384377 0.618685 -4.05132 -0.770962 0.289207 -0.166343