ITEM: TIMESTEP
115750
ITEM: NUMBER OF ATOMS
2000
ITEM: BOX BOUNDS pp pp pp
1.0838953229856951e-01 1.4221610467701321e+01
2.1677906459713903e-01 2.8443220935402643e+01
-2.8336525173514593e+00 6.0153652517351020e+01
ITEM: ATOMS id type x y z vx vy vz c_csym c_peratom fx fy fz
2 1 1.62332 1.66863 -1.25092 -0.282889 -3.25185 -0.636516 0.278957 -4.00034 -0.210529 -0.325313 -0.557821
4 1 4.35789 1.61575 -1.32739 0.990702 -5.33602 3.45801 0.243205 -4.00592 0.172258 0.298446 0.294645
11 1 0.115605 3.14255 -2.78278 0.617832 -0.194419 3.50607 0.234582 -3.93294 -0.362778 -0.147979 0.00963105
101 1 0.126621 0.284403 0.286984 -1.57173 1.46596 2.1275 0.152906 -4.02824 -0.338997 -0.048884 -0.604579
103 1 2.85007 0.270771 0.350139 0.287695 0.367304 -1.8153 0.245619 -3.89553 0.613688 -0.123981 0.269322
111 1 0.168447 3.08626 0.315019 -2.2925 0.592843 0.179022 0.133883 -4.00297 0.195197 -0.188952 -0.0373356
113 1 2.87763 3.13123 0.373818 -1.71434 2.42111 -1.1208 5.78781 -3.96351 -0.0291325 0.0580608 0.0721169
13 1 2.94284 3.10367 -2.8135 -0.0706192 -1.95523 0.774801 0.0748621 -3.91799 0.0388089 0.379891 -0.0567777
6 1 7.17995 1.58532 -1.25808 -1.53139 -1.81767 -2.43971 0.231894 -3.97982 0.163841 0.512755 0.0670466
17 1 8.63608 3.25517 -2.76032 -1.24355 -0.0988133 -0.860341 5.19386 -3.97363 -0.348167 -0.693555 -0.0782402
105 1 5.90739 0.22905 0.316556 0.812795 -1.48127 -4.16198 0.295729 -3.98035 -0.56588 -0.361353 -0.0490996
115 1 5.79048 3.13764 0.300938 -0.932742 0.818202 0.0439582 0.184123 -3.95648 -0.218223 -0.374434 0.12154
117 1 8.60233 3.08029 0.38608 0.475293 0.415756 -1.302 0.173172 -3.94946 -0.377137 -0.1255 -0.615367
15 1 5.86915 3.09703 -2.77314 -1.1078 -3.23994 -0.243916 0.300155 -3.89715 -0.277855 0.386914 -0.0861564
8 1 9.98472 1.71462 -1.38023 1.02028 2.64764 -1.65962 0.426661 -3.9606 -0.148231 -0.278828 0.794175
9 1 11.3244 0.287262 -2.72732 -0.628437 1.37052 0.162777 0.419854 -3.9559 1.01358 -0.167543 0.242282
10 1 12.8557 1.68831 -1.32682 -0.261261 2.58464 0.684826 0.142921 -3.93679 -0.278079 0.142997 -0.0939058
109 1 11.3921 0.306018 0.284873 4.17545 -4.26001 3.01885 0.171809 -3.96028 -0.411218 -0.243321 -0.259884
119 1 11.4562 3.11085 0.227586 -0.877516 0.612354 1.13148 0.160171 -4.00496 -0.542014 -0.386768 0.0788182
12 1 1.52356 4.6359 -1.35918 1.18436 1.40208 1.05812 0.595312 -3.95002 0.285709 -0.174105 0.464098
14 1 4.34915 4.42365 -1.15246 -0.761965 1.11821 -1.53086 0.278947 -4.01156 -0.0399161 -0.0329084 -0.669067
22 1 1.54026 7.32431 -1.33029 0.529166 1.27637 -0.648244 5.80091 -3.92954 0.145928 -0.454277 0.450169
23 1 3.01689 5.92797 -2.8045 4.21453 0.286138 -0.65637 0.226266 -3.93096 -0.301527 -0.320033 -0.413181
24 1 4.35552 7.36387 -1.25623 0.718611 1.41969 0.425215 0.11148 -3.9507 -0.52321 0.187247 0.0343081
121 1 0.132435 5.82793 0.307672 -2.35864 3.10392 -0.471262 0.192621 -3.94219 0.327451 0.531419 0.262261
123 1 3.01618 5.86763 0.408173 1.00139 1.8653 -1.24788 0.262657 -3.99046 -0.390096 -0.293411 -0.219178
16 1 7.14135 4.5226 -1.17483 0.603539 0.154603 0.133915 0.162986 -3.97632 -0.150194 -0.340942 -0.180289
25 1 5.70759 5.92495 -2.70921 -0.827089 1.1553 2.35682 5.04593 -4.02296 -0.0303973 -0.740708 -0.673457
26 1 7.1412 7.16975 -1.30851 -0.0337704 2.62343 0.778117 5.20149 -3.88247 -0.0392902 1.05557 0.391955
125 1 5.74127 5.95799 0.353386 -0.136011 -2.75282 -0.154075 0.139034 -4.08308 -0.0542451 0.227112 0.378461
127 1 8.57446 5.88387 0.210493 -1.51658 -3.67076 0.00771245 0.395441 -3.96607 0.28021 -0.0862589 0.309538
18 1 10.0587 4.47472 -1.25467 2.01504 1.15568 0.108705 0.21869 -3.97517 -0.0559992 0.103798 -0.033431
20 1 12.7939 4.54238 -1.29017 -0.022531 3.00342 -1.17168 0.0638634 -4.02833 0.0835652 0.410731 0.13908
28 1 10.1169 7.35391 -1.16053 1.08986 -1.21663 1.80841 0.417263 -3.95122 -0.336003 -0.54153 0.0379097
29 1 11.4127 5.98723 -2.81481 1.3822 1.47477 -0.555896 0.0543395 -4.0072 -0.274945 -0.405176 -0.204388
30 1 12.8531 7.28188 -1.19051 0.362699 -0.519128 0.486825 0.138285 -4.01597 0.111916 0.442945 0.145936
129 1 11.3642 5.90889 0.360928 -0.995542 1.01394 2.2528 0.112846 -4.02621 -0.0388346 -0.250663 -0.39677
32 1 1.48279 10.1923 -1.32763 2.66336 -1.18469 0.933482 0.241407 -4.06162 0.00628904 -0.27654 0.0581362
34 1 4.32744 10.195 -1.32666 -3.42019 -1.92301 1.41173 0.199874 -3.97527 -0.0822618 -0.0545342 0.238205
43 1 2.92107 11.628 -2.80995 2.17426 0.782241 3.50485 0.12207 -4.0368 -0.139864 -0.690536 -0.213008
133 1 2.87707 8.77788 0.342948 -1.44944 0.975575 0.710255 0.0927989 -3.92027 0.383846 -0.405648 0.0114839
141 1 0.146359 11.6297 0.222045 -2.20193 -7.04944 -1.51669 0.334484 -4.03015 -0.109478 0.238872 0.622845
143 1 2.92416 11.521 0.317992 -0.572232 1.1909 1.77002 0.167143 -4.04136 -0.280424 -0.138203 -0.362058
36 1 7.17897 10.1662 -1.20624 0.10168 3.47717 0.174941 0.171907 -3.8977 -0.0436539 0.00464444 -0.23957
47 1 8.63625 11.4798 -2.72445 -1.46078 2.66256 0.234251 0.295741 -3.98063 -0.543226 0.037106 -0.218602
135 1 5.71447 8.72482 0.423615 -0.880733 0.590278 -0.109653 5.72179 -3.94541 0.294706 -0.207132 0.0503855
137 1 8.61908 8.74613 0.249465 -4.19951 1.4167 -2.48788 0.377355 -3.99911 -0.0670005 -0.0538782 -0.0160005
145 1 5.78797 11.4174 0.320738 0.913579 -3.10787 0.676852 5.73116 -3.9517 0.065437 0.306908 0.345362
147 1 8.63173 11.5707 0.429495 -2.52053 -2.66134 -2.016 0.198454 -3.98581 -0.36384 0.172979 -0.688215
37 1 8.64539 8.6808 -2.69285 -0.410704 1.96136 0.795798 0.382102 -4.03725 -0.361334 0.391973 -0.122929
41 1 14.1834 11.5242 -2.72861 -1.35835 -5.95404 3.83557 0.256164 -3.99381 -0.143324 0.561952 -0.0169052
131 1 14.189 8.78043 0.44574 -1.59748 2.05417 3.03081 0.424039 -3.9097 0.899122 -0.0510555 -0.289477
38 1 10.1092 10.2499 -1.13374 0.647054 3.02786 -2.05404 0.499848 -3.99474 -0.298143 -0.698221 0.206511
39 1 11.3428 8.78317 -2.77813 2.80774 -0.622395 -1.00191 0.224273 -3.99172 0.242971 0.0982182 0.396298
40 1 12.8549 10.1114 -1.1152 -1.75728 -0.634733 -0.267602 0.25644 -3.99364 -0.0475717 -0.354692 -0.0696969
139 1 11.4119 8.69776 0.410059 -0.425376 2.4171 -0.0430739 0.11268 -4.02977 0.138191 0.148304 -0.545105
149 1 11.4267 11.5446 0.410995 -0.904464 -0.906018 0.248794 0.181414 -3.99775 0.169302 0.32521 -0.30682
49 1 11.351 11.4979 -2.74779 -3.94296 -1.72452 -3.57845 0.146577 -3.94873 0.127443 -0.0719267 -0.403717
42 1 1.60077 12.9976 -1.34517 -0.841826 -0.173751 0.753914 0.439554 -3.98123 -0.331573 0.159562 0.455275
44 1 4.30049 12.9516 -1.36131 -1.17519 0.372824 -0.13007 6.08965 -4.05008 0.498715 -0.186558 -0.072376
52 1 1.58776 15.7356 -1.10118 -0.585983 1.26946 1.71295 5.20327 -3.86534 -0.426525 -0.116977 -0.549869
54 1 4.38463 15.6552 -1.25978 0.269637 0.959657 1.9614 0.280833 -4.01464 -0.451142 0.152351 -0.0541451
153 1 2.9946 14.2978 0.331943 -3.03426 -0.361765 3.65674 0.167929 -3.93807 -0.312839 0.180068 0.353105
46 1 7.13899 12.8477 -1.28593 -0.042375 -0.703018 -2.37022 5.26042 -3.9501 -0.0827845 0.0861935 0.0176829
56 1 7.08452 15.7726 -1.34385 0.19616 0.505449 -1.21975 0.265582 -4.02071 0.235834 0.000750776 0.0219892
155 1 5.76502 14.3443 0.271454 -0.699273 2.50818 -2.71856 0.104604 -3.98286 0.225007 -0.361623 -0.0180073
157 1 8.53251 14.4644 0.360819 1.77519 1.9958 -4.01974 5.21205 -3.98803 -0.23173 -0.348462 0.236678
57 1 8.49816 14.3386 -2.6842 5.27468 2.46447 0.151665 0.534279 -3.88123 0.134547 0.0984674 -0.660682
51 1 14.0057 14.3518 -2.83321 5.08997 3.62125 -2.07853 4.92973 -3.89643 0.993686 -0.252844 -0.264927
151 1 14.2009 14.4155 0.340867 -4.71089 2.01634 -0.85659 0.127382 -3.90056 -0.00324824 -0.456649 0.372034
48 1 9.93985 13.0563 -1.23205 2.86016 2.34417 0.701272 5.21197 -3.97182 0.18582 -0.571789 0.184672
50 1 12.7181 12.9904 -1.23493 0.559624 -1.36974 -0.820506 0.184508 -3.97941 0.158764 -0.0231275 0.286305
58 1 9.99316 15.7186 -1.25123 -3.3381 -1.51398 5.38263 0.17931 -4.01502 0.0509068 0.192407 0.0308862
60 1 12.7967 15.7437 -1.24524 1.53771 1.90327 -4.70531 0.114231 -4.01376 -0.23258 0.0832014 0.689305
159 1 11.3491 14.3264 0.39408 -0.265735 -1.65506 -3.98071 0.154736 -3.9857 0.276513 0.0449058 -0.334677
62 1 1.43944 18.5161 -1.2075 0.272627 0.831543 -0.200207 0.117398 -3.94226 0.375181 0.379299 -0.195461
64 1 4.38586 18.6552 -1.20307 1.24428 1.0664 2.86252 5.34569 -3.94314 -0.319757 -0.728307 0.1635
163 1 2.94245 17.1558 0.220621 0.341627 2.40032 0.506019 0.411837 -3.96454 0.609369 0.290748 0.333166
171 1 0.141802 19.9783 0.433572 -0.0590841 -1.37942 4.27312 0.177545 -4.04868 -0.650958 -0.132785 -0.268017
173 1 2.89555 19.9823 0.308629 0.785649 -1.23368 2.3689 0.150051 -4.02133 -0.395834 -0.489049 0.0926459
66 1 7.24355 18.6165 -1.2039 2.75597 -4.35103 0.905848 5.63542 -4.04703 -0.541421 -0.19236 0.123029
67 1 8.57677 17.1461 -2.80808 -4.30079 -3.56988 1.31798 0.0495948 -4.06391 -0.421556 -0.33905 0.349601
165 1 5.78304 17.093 0.261889 1.97311 1.99329 -0.167527 0.245415 -3.96611 -0.155846 0.18979 -0.0473233
167 1 8.56005 17.078 0.205604 1.63712 1.01306 -0.622391 4.79291 -4.01833 0.294575 0.00881567 0.829372
175 1 5.70632 20.007 0.335999 -3.42076 -2.85137 2.01629 0.136868 -3.97456 0.4167 0.211564 -0.0545093
177 1 8.58858 20.043 0.552803 -1.05917 0.80188 -0.731301 1.04089 -3.94761 0.192852 -0.273647 -0.399593
75 1 5.71713 19.9361 -2.8237 -4.53949 -0.9021 2.29786 0.133757 -3.97494 0.0592484 -0.0394407 -0.264171
65 1 5.67248 17.193 -2.78349 -1.31158 -3.63153 -0.620776 0.340307 -4.01587 0.227175 0.025578 0.0604051
161 1 14.1852 17.2046 0.439089 -8.06951 -0.86164 0.0732044 0.223597 -4.04874 0.0254525 0.278845 -0.660042
68 1 9.83757 18.5862 -1.1761 1.01621 0.95189 3.77626 5.41394 -4.01807 0.449396 0.748508 -0.228021
70 1 12.7582 18.5098 -1.21877 -2.75978 -0.241021 0.901339 0.158842 -3.90041 0.117408 0.371639 -0.122713
169 1 11.4357 17.1907 0.324875 -0.050047 0.778513 1.36961 0.112569 -3.96482 -0.218343 0.0422009 -0.0016425
179 1 11.4548 19.9395 0.414964 0.478562 4.61523 -0.247094 0.253172 -4.00402 0.0639196 0.375964 -0.518874
69 1 11.3235 17.1806 -2.72213 2.51938 -0.439877 2.89062 0.225687 -3.96877 0.502673 -0.565078 -0.501695
71 1 14.189 20.001 -2.7151 -3.02828 1.71166 0.793185 0.311826 -3.86402 -0.0417145 -0.375819 0.0446442
61 1 14.2026 17.0274 -2.75761 -2.79754 0.110739 5.17862 0.303133 -3.92738 -0.0457589 0.0721391 0.273547
72 1 1.54936 21.3951 -1.30595 2.3338 -3.4761 -2.56089 0.179547 -4.04724 -0.18172 -0.0770232 -0.456242
74 1 4.24289 21.3195 -1.16937 -0.775897 2.76848 -0.309503 0.380128 -4.11051 0.423412 0.0706032 -0.119626
82 1 1.5098 24.075 -1.38231 -0.197856 1.54937 -4.05427 0.299446 -4.02684 0.0552703 0.252258 0.077106
84 1 4.24694 24.1216 -1.22804 1.75243 2.83472 -4.12876 0.40194 -3.94121 0.537173 0.480785 0.054832
181 1 0.128659 22.763 0.270689 -3.03311 -1.67311 -0.629939 0.0480505 -4.02519 -0.103051 -0.32156 -0.51188
183 1 2.89382 22.7594 0.226053 0.572942 -1.11899 -0.365379 0.168488 -4.06127 -0.302845 0.557979 0.607177
76 1 7.14056 21.2635 -1.25561 -0.691281 0.193514 1.05787 5.41454 -3.8695 0.226175 0.819623 0.450226
86 1 7.25436 24.2668 -1.25285 -2.43118 3.29649 -1.15762 5.74835 -3.87586 0.0942523 -0.499326 -0.157877
185 1 5.72509 22.8979 0.231382 3.67767 -2.14848 -3.35625 0.476829 -4.00528 -0.0774667 -0.982728 -0.174353
187 1 8.47118 22.692 0.411452 -0.732136 -0.532565 -1.73565 5.25683 -3.98132 0.280283 0.328274 -0.280068
78 1 9.92402 21.3232 -1.31392 -2.14879 -1.2859 1.20999 0.229217 -3.99153 0.0636419 0.343533 0.701889
80 1 12.7264 21.3466 -1.23516 -2.02506 0.894117 1.33119 0.0650074 -3.94529 0.198496 0.434344 -0.0182497
88 1 9.99398 24.1702 -1.21001 -1.34963 2.3224 -3.76156 0.210026 -3.97498 -0.564316 -0.142879 0.0210525
90 1 12.8226 24.1983 -1.34868 -3.32555 -1.34099 0.789537 0.184931 -3.93254 -0.432312 -0.201949 -0.040351
189 1 11.404 22.6532 0.251699 1.1462 2.87937 3.03823 0.291876 -3.90271 -0.0259286 0.487268 -0.276292
92 1 1.49183 27.0716 -1.26683 -1.55268 0.823337 -0.21304 0.0695523 -3.94428 -0.428719 -0.176047 0.365453
93 1 2.95679 25.6072 -2.81303 -2.98218 -1.24306 2.03838 0.175151 -3.96078 -0.138311 0.0675656 -0.24221
94 1 4.31233 27.0701 -1.10094 -2.42482 -0.468398 -1.32983 0.702971 -3.93555 -0.311429 0.0606333 -0.10522
193 1 2.87926 25.4829 0.241597 -1.0862 0.475835 1.41936 0.420139 -3.93871 -0.19214 0.74881 0.112403
5 1 5.72241 28.2956 -2.74903 2.69086 -0.906142 0.0342517 5.13089 -3.9782 -0.106255 0.320854 -0.244456
107 1 8.62684 28.3911 0.354143 1.62718 -2.83475 -3.52836 0.300815 -4.04255 0.111319 1.09694 -0.721666
96 1 7.19496 27.0059 -1.2645 3.8854 -2.09663 -3.2721 0.0391522 -4.03588 0.0406803 0.144551 0.309331
195 1 5.7699 25.6353 0.257367 -1.7019 -1.17403 1.74296 0.138185 -3.91565 -0.163996 0.170584 0.646704
197 1 8.65402 25.6862 0.3128 -0.592902 -0.620959 0.00800132 0.325382 -4.03324 -0.310349 -0.348659 -0.146807
7 1 8.51249 28.4072 -2.72689 0.305773 -1.36188 3.04787 0.350985 -3.96993 -0.317851 -0.380221 -0.21298
191 1 14.1954 25.5315 0.267052 -0.0885336 -4.4938 -0.48509 0.208705 -3.90657 0.520103 0.358105 -0.674759
98 1 9.85719 27.0277 -1.31095 2.60699 4.64685 0.62246 5.5364 -4.07367 0.499087 -0.196151 -0.202588
100 1 12.8111 27.1397 -1.25334 0.688756 2.41483 -3.36628 0.111308 -3.96175 0.121719 -0.348473 -0.115986
199 1 11.3947 25.7747 0.314453 -1.77748 -0.753815 0.440887 0.586166 -3.91762 0.320809 -0.44015 -0.159422
99 1 11.3966 25.6653 -2.76822 -3.11862 -0.640777 0.494149 0.141907 -3.99599 -0.397904 0.00207777 -0.125863
102 1 1.43258 1.58866 1.9184 7.38627 -3.29026 1.48818 0.297842 -4.03721 0.241616 -0.103474 0.126352
104 1 4.40471 1.70471 1.82421 -2.62904 -0.431866 -2.50035 0.23406 -3.95712 -0.476784 -0.00988823 -0.609884
202 1 1.64591 1.56967 4.91952 2.02744 3.5456 -1.59179 4.67761 -4.03429 -0.970176 0.60243 -0.183156
203 1 2.94499 0.259696 3.42052 -1.3304 -3.48688 0.0854903 0.1301 -4.05053 0.0427978 0.235166 -0.59675
204 1 4.18458 1.68524 5.00426 -0.935437 1.48785 2.63114 4.60874 -3.99492 0.767445 -0.270848 0.0840715
213 1 2.88677 3.08084 3.38477 -2.28947 -0.845795 -1.07431 0.360654 -4.01856 -0.183665 -0.289621 0.100525
106 1 7.15632 1.63052 1.80849 0.736671 -1.16949 0.0239501 0.247863 -4.05857 0.645861 0.530207 0.757839
205 1 5.64874 0.299036 3.28021 2.33469 0.995414 0.291621 4.70323 -3.91062 0.8308 -0.439947 0.771142
206 1 7.2548 1.68985 4.96407 -1.46106 -1.55409 1.7364 4.85469 -3.95365 -0.285056 -0.356135 -0.223617
207 1 8.58474 0.236208 3.49965 1.31666 3.04051 1.49325 0.155055 -3.963 0.140963 0.04709 -0.755729
215 1 5.78167 2.95842 3.5543 -1.49422 -2.50707 3.51511 0.532437 -3.96547 -0.212032 0.585754 -0.0185676
217 1 8.60442 3.0921 3.44469 -1.80041 2.92479 -5.24384 0.122768 -4.02198 -0.374928 -0.0574999 0.335355
201 1 14.2143 0.277593 3.50344 -0.76465 1.66164 -3.30675 0.324603 -4.00751 -0.233756 -0.0738596 -0.114407
211 1 14.1953 3.09372 3.55963 0.131749 -3.47244 0.658656 0.279406 -3.94789 0.287498 -0.604099 0.184111
108 1 9.98023 1.81548 1.94091 1.78008 -0.0382443 0.481447 5.66636 -3.90362 0.363525 -0.960016 0.0257632
110 1 12.7567 1.63776 1.84706 0.143622 0.261967 0.471904 0.163483 -3.88831 0.157628 0.206326 0.231766
219 1 11.4042 3.08595 3.47052 2.96876 -3.6 -0.306264 0.0662148 -3.94145 -0.277921 0.0536989 0.352996
112 1 1.47335 4.44722 2.00546 -2.08488 5.53109 1.88305 0.247076 -3.95166 0.253331 0.600801 0.0155084
114 1 4.45714 4.53943 2.01838 0.408107 -1.46821 1.68028 5.22401 -4.02431 0.0709787 -0.600837 -0.0347137
122 1 1.5387 7.19477 1.9713 -2.178 2.10286 -1.52883 0.267828 -3.88708 -0.529077 0.274096 -0.0259924
124 1 4.30599 7.3213 1.94772 -1.70609 -0.894295 0.386355 0.159963 -3.94563 -0.0192314 -0.0213796 0.313609
223 1 3.00176 5.86832 3.51156 -2.9209 -3.41332 -1.19244 0.120283 -4.01133 -0.136216 -0.324678 0.419464
116 1 7.08446 4.43511 1.94816 -0.717838 -0.661302 1.69127 5.33076 -3.99863 0.277068 0.144965 0.0821419
126 1 7.33953 7.39572 1.9263 1.37971 -3.46356 0.697126 0.499424 -3.89104 -0.536518 -0.322301 -0.313339
216 1 7.15048 4.45322 4.92099 0.663868 1.20315 1.59813 0.350739 -4.04864 -0.213955 0.609209 -0.0890859
225 1 5.7941 6.05956 3.42314 0.299468 -1.75276 -1.18853 5.6217 -3.95759 -0.0215802 -0.550693 0.327525
227 1 8.61587 5.8789 3.42997 -0.532809 -0.371899 0.126652 0.137789 -3.97051 0.0257082 0.162678 0.202538
221 1 14.1524 5.86373 3.52616 0.796103 -1.93786 -0.0692733 0.131298 -4.00242 -0.160236 0.433196 -0.455917
118 1 10.0291 4.4796 1.90972 -2.00022 0.251406 -1.34662 0.105629 -4.04881 -0.257371 0.278746 -0.401846
120 1 12.7727 4.51546 1.84341 -2.93314 -0.0391201 0.674702 0.119011 -4.0067 0.153614 0.10326 0.514463
128 1 10.0124 7.32217 1.8592 -2.7644 2.28321 3.1472 0.135077 -4.03358 -0.342758 0.11479 -0.0500402
130 1 12.7448 7.26336 1.86533 -1.8326 -3.86476 -3.53257 0.168853 -4.02162 0.704128 -0.123452 0.340845
218 1 9.92391 4.44006 5.03772 2.54663 2.02038 1.45237 0.0892837 -4.02807 0.108157 0.343482 0.099349
220 1 12.7806 4.44772 5.0292 -0.879614 -1.25736 1.20844 0.0650037 -3.899 0.119727 -0.0031476 0.305164
229 1 11.2652 5.91426 3.50519 0.58398 1.74186 -1.1864 0.304063 -4.01978 0.981541 0.265586 0.334228
230 1 12.8446 7.35538 4.95155 2.31232 0.678649 1.21522 0.279907 -3.9778 -0.268281 -0.541802 0.365699
132 1 1.49806 10.2454 1.82408 0.926583 1.77752 2.20689 0.206867 -3.9728 -0.219348 -0.186928 0.403204
134 1 4.33421 10.2257 1.96634 -1.95039 -2.01599 -1.69927 5.45963 -3.94333 -0.0239668 -0.368075 0.207343
233 1 2.86938 8.7146 3.52885 -0.683116 0.194601 5.31636 0.147694 -3.90354 0.198754 -0.339191 -0.0127637
234 1 4.30212 10.2221 5.03558 -0.621179 0.157015 -0.123602 5.49 -3.97376 0.29732 -0.4253 0.235765
241 1 0.149986 11.5192 3.42462 -2.41095 0.904273 -0.0212207 0.0947182 -4.01308 -0.405154 -0.196311 -0.117547
243 1 2.87755 11.525 3.36984 -0.234391 0.744033 0.670144 0.257203 -3.98428 -0.155637 -0.00589832 0.224344
136 1 7.34978 10.1327 1.94285 0.629619 0.98562 1.20116 5.05379 -4.0398 -0.598779 0.26132 -0.489394
235 1 5.87066 8.81598 3.39471 0.465343 -1.43871 1.4062 0.393699 -3.98919 -0.214113 -0.751342 0.103101
237 1 8.63235 8.75913 3.62634 2.56455 0.935182 0.542097 0.39136 -4.07727 -0.0564807 -0.257948 -0.323924
245 1 5.87987 11.5851 3.46186 0.240801 -0.541356 -0.243051 0.42526 -3.98 -0.309972 -0.248441 -0.143105
247 1 8.6244 11.498 3.57536 0.432483 -3.51449 2.45946 0.20399 -4.06172 -0.0131956 0.303063 -0.0958054
231 1 14.2058 8.74973 3.42355 -0.187028 1.52542 1.17023 0.0875343 -4.02439 0.694636 -0.0906704 -0.0198119
138 1 9.92992 10.142 1.87319 -1.64946 -2.47072 4.24093 5.30771 -4.07356 1.06234 -0.530492 0.17551
140 1 12.8378 10.2224 1.88169 -3.06779 0.590986 0.953237 0.199562 -4.03504 -0.780719 -0.132299 0.484779
239 1 11.364 8.67474 3.43121 1.07823 -1.10089 5.00007 0.101967 -4.02171 0.100019 0.351484 -0.275034
240 1 12.788 10.0949 4.87872 0.473313 1.12475 -2.36237 0.400285 -3.92194 -0.0290977 0.624284 0.699226
249 1 11.3994 11.5636 3.56414 0.00818624 4.09037 -1.73351 0.262115 -4.00783 -0.135261 -0.0277888 0.103536
142 1 1.52181 13.0509 1.98869 -1.28477 -4.17543 2.9049 0.366892 -4.01965 -0.101937 -0.350669 0.0783274
144 1 4.29805 12.8216 1.81329 1.81958 -2.20134 0.0142737 4.94817 -3.96559 0.360844 0.820413 0.0758624
152 1 1.51339 15.8576 1.96346 -0.669006 2.84052 -0.820189 5.41742 -4.0829 0.480677 -0.670592 -0.318678
154 1 4.25725 15.7179 1.87348 2.46855 -1.35996 -1.82568 0.309654 -3.97169 0.705734 0.276628 -0.408567
242 1 1.53992 12.9165 5.00332 0.280113 3.4737 -1.1283 0.125942 -4.0376 -0.00328663 0.0334338 -0.169899
244 1 4.24982 12.7782 5.03142 2.14938 -0.0921022 -0.749942 5.41704 -3.98268 0.246091 0.370508 0.121559
251 1 0.128475 14.4623 3.52862 2.68999 -0.1114 0.508103 0.231258 -3.97561 0.0249368 -0.0654672 -0.035316
252 1 1.63436 15.7834 4.91092 -3.12021 0.366244 0.726554 4.68896 -3.93917 0.0674937 -0.11584 0.100141
253 1 3.02926 14.3678 3.502 0.643288 -2.70259 -2.00417 0.363873 -3.96705 -0.355567 -0.393 -0.0295675
146 1 7.13468 12.9886 1.88864 1.04428 0.1527 -2.62964 0.133267 -3.85938 0.336512 -0.257629 -0.101473
156 1 7.1141 15.8395 1.91705 -5.45427 -4.00032 2.42238 0.299371 -3.98925 -0.0252188 -0.177317 0.304296
255 1 5.79332 14.3612 3.41455 0.949383 2.2935 -3.25327 0.184494 -3.97856 -0.517068 0.139281 0.615465
256 1 7.19239 15.8423 4.93374 -0.861153 0.781607 -0.146585 0.395726 -4.02124 0.497623 -0.788293 0.218426
257 1 8.60857 14.4287 3.51936 -2.00567 3.54744 2.76289 0.0755095 -3.96833 -0.298335 -0.550683 -0.142054
148 1 10.0789 12.8625 1.99132 2.53119 -0.204599 1.59625 5.28586 -3.95094 -0.59204 0.674619 -0.10245
150 1 12.8144 12.9078 1.95559 0.842405 -1.04171 -0.584461 0.162729 -4.04707 0.694162 0.488709 -0.24431
158 1 10.0599 15.8093 1.97335 1.95172 -4.28031 -2.67566 0.26514 -3.93512 0.109343 -0.315718 0.130065
160 1 12.7974 15.8078 1.86846 2.05154 2.79304 -0.0709358 0.203622 -3.97971 0.136732 -0.344342 0.569601
250 1 12.9049 12.9601 4.98145 1.45982 -1.9964 -1.75047 0.276545 -4.01472 0.127367 -0.254029 0.160313
259 1 11.5154 14.2983 3.46022 2.36546 0.76793 -0.871017 0.269549 -4.01619 -0.39782 0.372211 -0.017116
162 1 1.61205 18.4318 1.90209 0.103087 0.473685 0.329909 5.1415 -3.98564 -0.0892605 0.420937 0.216941
164 1 4.41893 18.6151 1.78248 -0.211573 3.22505 -5.20284 0.360688 -3.98552 -0.59909 -0.607912 -0.0389229
262 1 1.64124 18.6991 5.01953 -1.57751 0.894061 -4.43727 5.14765 -4.01352 -0.595875 -0.271674 -0.247992
263 1 3.02324 17.1738 3.44624 -2.37006 -0.133771 0.32695 0.272282 -4.02562 -0.284499 0.28677 0.477695
271 1 0.239882 19.931 3.35012 -2.9132 -1.24747 -1.34561 0.615328 -4.00197 0.100381 0.0556671 0.33227
273 1 3.06119 20.0027 3.46309 0.40391 -0.0741893 3.19324 5.52993 -3.99125 -0.24341 0.199655 -0.0390109
166 1 7.16241 18.5363 1.88291 0.698547 0.150344 -2.49931 0.187905 -4.02516 0.168915 -0.42732 -0.383715
265 1 5.71847 17.1429 3.58807 -1.6126 -0.82668 -3.54668 0.461654 -4.00161 -0.138152 -0.118203 -0.30991
266 1 7.25348 18.553 4.93504 1.95445 3.37989 -0.145865 5.05031 -3.92164 -0.296074 -0.00797212 0.00909745
267 1 8.63962 17.1234 3.38482 1.62128 1.24999 -1.44411 0.27426 -3.9688 -0.0840034 0.55131 0.503226
275 1 5.66392 19.9514 3.46966 0.0670137 -1.38317 -3.87798 5.21332 -3.99167 0.380999 -0.0861278 0.073477
277 1 8.52362 20.0544 3.45847 0.898333 -0.0775842 -0.479706 0.260655 -4.01906 0.482473 0.0636487 0.018564
261 1 14.1769 17.1487 3.54309 3.22524 -0.724689 1.23685 0.360769 -4.032 0.229061 -0.0146961 -0.0968167
168 1 9.9888 18.5753 1.92764 -3.61858 0.233632 -1.83299 0.219205 -3.95252 -0.161663 -0.250291 0.120194
170 1 12.8038 18.6463 2.03831 0.900172 4.64776 -2.52583 0.345717 -4.02307 0.0508506 -0.798419 -0.236363
269 1 11.4148 17.1891 3.65366 1.22914 3.37173 -1.05524 0.416596 -3.98492 0.31504 0.433622 -0.864769
270 1 12.909 18.7314 5.02502 -1.75346 -1.91228 -0.862528 5.44188 -3.961 -0.606461 -0.228165 0.547743
279 1 11.3598 20.0486 3.43564 2.0114 -4.45816 0.994583 0.277133 -3.93452 -0.650377 0.0570461 0.493111
172 1 1.47279 21.4257 1.93088 2.33301 -0.225112 2.95214 0.282467 -4.0014 0.987471 -0.0922998 -0.105595
174 1 4.32705 21.4567 1.77095 -1.27528 -0.710527 -1.51037 0.285705 -4.00762 -0.220746 0.177355 0.132861
182 1 1.5749 24.1646 1.88121 -0.784188 -3.79054 -2.16947 0.065472 -4.02027 -0.588854 0.0168665 0.492034
184 1 4.3073 24.238 1.83668 -0.587332 0.565944 -1.32797 0.146405 -3.99911 -0.0244434 -0.441448 -0.269199
272 1 1.50093 21.4332 4.94112 -1.3891 0.701157 2.48604 0.387471 -4.05543 -0.0391887 -0.126851 0.200337
281 1 0.183488 22.7914 3.52545 -2.74019 0.616667 0.622568 0.164683 -3.94904 -0.493961 0.474021 -0.470266
283 1 2.92311 22.8102 3.544 1.18139 2.06881 4.32688 0.187095 -3.93676 0.785781 0.0798568 -0.0633379
176 1 7.06694 21.3141 1.95248 -3.95137 -1.5893 -1.01736 0.39835 -4.01309 0.318672 0.0526013 -0.337644
186 1 7.17879 24.1447 1.78492 2.78581 2.06017 1.88695 0.198027 -3.91548 0.086138 0.44926 -0.0353114
285 1 5.85589 22.7635 3.32893 1.31531 1.02106 -0.50399 0.566106 -3.93301 -0.750723 0.421578 0.638354
287 1 8.6565 22.7436 3.37675 2.42 3.87829 -0.705154 4.94118 -4.09443 -0.328801 0.160829 0.62511
178 1 9.99102 21.4199 1.8416 -1.13098 -1.50552 3.15931 0.254974 -4.03801 0.672265 0.00363322 -0.336246
180 1 12.8404 21.4228 1.97939 -0.471497 0.0061306 0.269058 0.309427 -4.11359 0.272021 0.388011 0.0525759
188 1 10.0407 24.0693 1.73148 -1.30348 -2.27273 0.479064 4.84388 -3.90438 0.00583415 1.12536 -0.270083
190 1 12.925 24.1389 1.85228 -1.55903 -2.12372 1.13416 5.60361 -3.89635 -0.587748 0.295594 0.460143
280 1 12.8739 21.3633 4.95574 1.61778 1.13426 1.57654 5.64035 -4.03236 0.117687 -0.014888 0.1506
289 1 11.3072 22.8471 3.46405 -3.96248 4.07387 -0.259648 0.498005 -4.018 0.0776785 -0.292693 0.422304
290 1 12.8777 24.1232 5.01393 1.06046 -1.98762 3.24564 0.240198 -4.01321 -0.228064 0.0104317 0.10626
192 1 1.54582 26.9795 1.9153 0.832332 -0.820942 0.130328 0.150678 -4.02926 -0.152153 0.250519 -0.0328399
194 1 4.33343 27.1078 1.85579 -1.61671 -3.20912 1.28134 0.253868 -3.97845 -0.147135 -0.378681 -0.324555
291 1 0.123486 25.6243 3.58602 -1.91934 -0.395923 -0.219087 0.403804 -3.94668 0.141092 -0.212019 -0.137195
292 1 1.58125 27.1181 4.92612 0.521729 -0.104332 -0.21211 0.283223 -4.04356 -0.296728 -0.258281 0.166085
293 1 3.0799 25.6086 3.43502 2.80973 1.17343 -0.298043 5.86467 -3.92761 -0.609937 -0.039018 0.391873
294 1 4.2495 27.1204 5.00619 -1.17778 2.9951 1.58236 0.254867 -3.97264 0.831416 0.140433 -0.436522
196 1 7.3038 27.0489 2.00284 3.37805 -2.98627 4.17109 4.90073 -3.93872 -0.564624 -0.231501 -0.404821
295 1 5.73558 25.636 3.41337 2.43808 0.681994 -1.51506 0.164149 -3.99106 0.372473 -0.0323937 0.27107
296 1 7.17419 27.0665 4.91557 0.309675 6.50899 -1.89168 0.258011 -3.91853 -0.240547 0.316318 -0.0235145
297 1 8.56397 25.5256 3.4616 -0.134748 1.31643 -3.31811 0.356957 -3.98221 1.13968 0.179378 0.257784
209 1 11.3537 28.3011 3.53115 -0.393176 -1.47754 0.78913 5.91347 -3.87064 0.311343 0.27862 -0.809702
198 1 9.95313 27.0869 1.79145 0.689763 -0.698924 -1.31982 5.16223 -3.86106 0.28238 -0.477019 1.04703
200 1 13.0099 27.0067 1.84739 5.30296 -0.270392 0.651806 5.52799 -3.91579 -0.396645 0.440448 0.421947
299 1 11.357 25.6421 3.50578 0.613569 6.18239 1.53807 6.254 -3.88124 0.139783 -0.195809 -0.285618
301 1 0.190771 0.330155 6.47248 0.5675 -0.168496 -2.46061 4.93413 -4.04793 0.0801577 -0.595787 0.0931506
302 1 1.52998 1.64637 8.31481 -1.42736 -3.15682 0.972455 0.311855 -4.00059 0.229509 -0.424729 -0.0679986
303 1 2.87995 0.257353 6.63231 0.341516 -0.0404191 -2.60214 0.187748 -4.04609 -0.0484454 -0.339373 0.19756
304 1 4.29008 1.6221 8.14998 -4.04083 -0.468429 4.02966 0.158019 -3.93555 0.332962 0.556897 0.299749
311 1 0.149724 2.85167 6.62369 -1.74976 0.28104 0.763369 5.22324 -3.91983 -0.306574 1.22604 -0.659632
313 1 2.89377 2.99568 6.50597 0.148637 -0.416692 -0.495992 0.361575 -3.917 -0.18804 0.431554 0.55124
305 1 5.63949 0.272746 6.62783 -2.6762 0.601797 -1.53878 5.08624 -3.87796 0.530346 0.236131 -0.436897
306 1 7.16827 1.7968 8.18048 -0.497955 1.38302 -0.554626 5.80729 -3.90539 -0.387971 -0.621838 0.326103
307 1 8.54451 0.339894 6.67392 2.06573 -1.47317 -0.377265 0.331168 -4.00582 -0.102851 -0.724403 0.415488
315 1 5.88369 2.98404 6.54098 0.746495 3.22544 0.384377 5.28846 -3.99887 -0.5752 0.162092 0.184687
317 1 8.5575 3.091 6.54229 0.877774 1.33708 0.284955 0.0773488 -4.11862 -0.302945 -0.164412 -0.0351257
208 1 9.93587 1.5992 5.05676 -2.11946 3.54369 -4.60115 0.124569 -4.08772 0.257236 0.525055 -0.0248762
210 1 12.7168 1.62492 5.08625 1.93469 -2.84729 3.21644 0.359023 -3.95839 -0.112144 -0.108883 -0.4161
308 1 9.85407 1.73124 8.13553 -3.32365 0.641461 0.348771 0.207803 -3.98549 0.299828 -0.550298 -0.0563512
309 1 11.427 0.271834 6.67174 2.261 -0.338001 1.59023 0.15465 -3.97497 -0.400271 0.15099 -0.317502
310 1 12.8338 1.67333 8.15761 -2.12593 2.9352 -1.91821 0.1732 -3.96533 0.0217782 -0.194703 0.0868745
319 1 11.2832 3.0542 6.63163 1.40137 -1.12676 -0.599603 0.110094 -4.02286 0.414921 0.0820047 -0.365574
212 1 1.5107 4.56417 5.06318 1.71349 1.1107 -0.37813 5.4519 -4.00933 0.284372 -0.337397 0.00367926
214 1 4.35594 4.34938 5.08202 -3.60792 0.888428 1.10906 4.96521 -3.9722 0.343306 0.587912 -0.642226
222 1 1.54559 7.23945 5.04087 2.60978 -1.28947 -2.65909 0.158611 -4.02201 -0.351334 -0.33798 -0.102354
224 1 4.45542 7.31972 5.07819 2.28078 -2.16034 3.83898 0.303585 -3.96164 -0.896785 0.148035 -0.731142
312 1 1.51633 4.46751 8.11163 6.58074 -1.87872 -2.48992 0.250778 -4.00119 0.445981 0.206814 0.188609
314 1 4.38482 4.47065 8.23093 1.38421 -0.500902 1.94911 0.161423 -3.91346 -0.224513 -0.381741 -0.0749945
322 1 1.50912 7.24612 8.0973 2.77664 -2.04083 2.3912 0.112479 -3.9811 -0.242876 -0.568821 0.106019
323 1 3.05231 5.91185 6.55555 -1.31866 2.39502 -0.268551 0.265585 -3.9748 -0.341403 0.0404757 -0.151423
324 1 4.3708 7.29584 8.12601 1.4459 0.563605 -1.51929 0.129067 -4.00188 -0.062681 -0.412299 -0.32571
226 1 7.22143 7.27669 5.04376 -1.92098 2.73055 -2.00716 0.112077 -4.0358 -0.0540896 -0.0875869 0.246433
316 1 7.10763 4.57462 8.16552 2.31643 -3.52172 -0.258836 0.36046 -4.0212 -0.167734 -0.876406 -0.275519
325 1 5.76431 5.8264 6.49574 -2.43851 2.57701 -2.10025 0.262121 -3.99244 -0.0210031 -0.086453 0.307336
326 1 7.19795 7.24786 8.07581 -1.71798 -0.00966545 0.572563 0.266189 -4.04838 -0.296703 0.77412 -0.775822
327 1 8.55272 5.78657 6.70453 -1.12912 -0.410511 1.0442 0.540194 -3.98074 -0.102468 0.49827 -0.749014
228 1 9.92162 7.27115 5.12574 0.0778168 -0.255412 1.79302 0.265546 -4.00664 0.276303 0.237783 0.252911
321 1 14.1448 5.82456 6.59594 4.06995 0.134137 -0.309495 0.200448 -3.9784 -0.00270351 0.46096 -0.050568
318 1 9.98504 4.43593 8.13 1.75132 -4.65897 3.2673 0.0891575 -4.01658 0.136112 0.6345 0.00518572
320 1 12.7757 4.48205 8.13699 1.89733 -3.11783 2.82706 0.188015 -3.95231 0.202208 -0.521082 -0.13791
328 1 10.0129 7.28399 8.00838 2.65819 -0.927283 -2.4793 0.513601 -3.98199 0.178843 0.0576633 0.612048
329 1 11.4291 5.87426 6.57819 1.9858 -1.38951 -0.786356 0.0745081 -4.00093 -0.204687 -0.0914459 -0.469624
330 1 12.8425 7.28945 8.15899 -1.97867 0.420953 -1.07444 0.0955645 -4.06029 -0.0323833 -0.241403 0.367737
232 1 1.56015 10.1641 5.05796 2.12226 0.0705619 -0.681687 0.21759 -4.03288 -0.148653 0.103846 -0.544146
332 1 1.46321 10.1244 8.19303 1.59487 2.03124 0.780371 0.279575 -4.00244 -0.350097 -0.438124 0.0363849