ITEM: TIMESTEP
131000
ITEM: NUMBER OF ATOMS
2000
ITEM: BOX BOUNDS pp pp pp
1.0838953229856951e-01 1.4221610467701321e+01
2.1677906459713903e-01 2.8443220935402643e+01
-3.2641057558812432e+00 6.0584105755880806e+01
ITEM: ATOMS id type x y z vx vy vz c_csym c_peratom fx fy fz
2 1 1.62332 1.66863 -1.65974 -0.282889 -3.25185 -0.636516 0.279249 -3.98201 -0.419246 0.0353911 -0.439112
4 1 4.35789 1.61575 -1.73725 0.990702 -5.33602 3.45801 0.24768 -3.97923 -0.0938189 0.0520111 0.265855
11 1 0.115605 3.14255 -3.21253 0.617832 -0.194419 3.50607 0.240215 -3.90834 -0.26646 -0.153195 -0.419871
101 1 0.126621 0.284403 -0.100816 -1.57173 1.46596 2.1275 0.153155 -4.01256 0.103238 -0.0508362 -0.21692
103 1 2.85007 0.270771 -0.0367987 0.287695 0.367304 -1.8153 0.247157 -3.87439 0.498978 0.0964129 0.0818945
111 1 0.168447 3.08626 -0.0723989 -2.2925 0.592843 0.179022 0.134543 -3.97826 -0.205302 -0.182565 -0.210465
113 1 2.87763 3.13123 -0.0127958 -1.71434 2.42111 -1.1208 5.84333 -3.94102 0.142166 0.159305 0.212838
13 1 2.94284 3.10367 -3.24368 -0.0706192 -1.95523 0.774801 0.0754505 -3.90181 -0.409556 -0.162452 0.359848
6 1 7.17995 1.58532 -1.667 -1.53139 -1.81767 -2.43971 0.233169 -3.95773 -0.026616 0.575723 0.122194
17 1 8.63608 3.25517 -3.18977 -1.24355 -0.0988133 -0.860341 5.24483 -3.95345 -0.28985 -0.431654 -0.32333
105 1 5.90739 0.22905 -0.0708401 0.812795 -1.48127 -4.16198 0.296113 -3.95928 -0.238311 -0.434406 0.365558
115 1 5.79048 3.13764 -0.0866715 -0.932742 0.818202 0.0439582 0.184966 -3.93765 -0.325205 -0.530054 0.0429715
117 1 8.60233 3.08029 -0.000366323 0.475293 0.415756 -1.302 0.176033 -3.92827 0.0806358 -0.135425 -0.588934
15 1 5.86915 3.09703 -3.20276 -1.1078 -3.23994 -0.243916 0.302377 -3.87708 -0.286118 0.0712884 -0.119837
8 1 9.98472 1.71462 -1.79082 1.02028 2.64764 -1.65962 0.436706 -3.94224 -0.515594 -0.0683455 0.513718
9 1 11.3244 0.287262 -3.15632 -0.628437 1.37052 0.162777 0.426938 -3.937 0.840763 0.0224197 0.149067
10 1 12.8557 1.68831 -1.73668 -0.261261 2.58464 0.684826 0.145257 -3.91952 -0.525265 0.332501 0.329257
109 1 11.3921 0.306018 -0.102956 4.17545 -4.26001 3.01885 0.172816 -3.93832 -0.0291938 -0.326197 -0.616963
119 1 11.4562 3.11085 -0.161027 -0.877516 0.612354 1.13148 0.162192 -3.98363 -0.050842 -0.512309 0.185517
12 1 1.52356 4.6359 -1.76948 1.18436 1.40208 1.05812 0.602553 -3.93016 -0.00485599 -0.640529 0.188979
14 1 4.34915 4.42365 -1.55994 -0.761965 1.11821 -1.53086 0.28082 -3.99264 0.049832 0.221122 -0.674425
22 1 1.54026 7.32431 -1.7402 0.529166 1.27637 -0.648244 5.86866 -3.91012 -0.114649 -0.326678 0.468499
23 1 3.01689 5.92797 -3.23455 4.21453 0.286138 -0.65637 0.227186 -3.91204 -0.552521 -0.222028 -0.527753
24 1 4.35552 7.36387 -1.66512 0.718611 1.41969 0.425215 0.11268 -3.93496 -0.27425 0.0705623 -0.116011
121 1 0.132435 5.82793 -0.0798454 -2.35864 3.10392 -0.471262 0.194452 -3.92394 0.319438 0.399426 -0.141772
123 1 3.01618 5.86763 0.0220285 1.00139 1.8653 -1.24788 0.264662 -3.96261 -0.0681561 0.00481701 -0.139743
16 1 7.14135 4.5226 -1.58261 0.603539 0.154603 0.133915 0.165365 -3.96238 0.18324 -0.382949 0.0717203
25 1 5.70759 5.92495 -3.13796 -0.827089 1.1553 2.35682 5.09528 -3.99817 0.284704 -0.690538 -0.480811
26 1 7.1412 7.16975 -1.71812 -0.0337704 2.62343 0.778117 5.25914 -3.86978 0.126117 0.697819 0.103579
125 1 5.74127 5.95799 -0.0335068 -0.136011 -2.75282 -0.154075 0.139285 -4.06098 -0.0766713 -0.0989661 0.0202959
127 1 8.57446 5.88387 -0.178353 -1.51658 -3.67076 0.00771245 0.403673 -3.93943 0.0759073 0.190662 0.469421
18 1 10.0587 4.47472 -1.66355 2.01504 1.15568 0.108705 0.220563 -3.9596 -0.336829 0.223746 0.528991
20 1 12.7939 4.54238 -1.69953 -0.022531 3.00342 -1.17168 0.0648761 -4.01296 0.276036 0.0637181 0.462036
28 1 10.1169 7.35391 -1.56812 1.08986 -1.21663 1.80841 0.420927 -3.93597 -0.576415 -0.266078 -0.156131
29 1 11.4127 5.98723 -3.24501 1.3822 1.47477 -0.555896 0.0545141 -3.98582 -0.520561 -0.201096 -0.0284001
30 1 12.8531 7.28188 -1.59851 0.362699 -0.519128 0.486825 0.13903 -3.99416 -0.276452 0.388147 0.00931029
129 1 11.3642 5.90889 -0.0258618 -0.995542 1.01394 2.2528 0.113871 -4.01314 -0.0425133 -0.0642867 -0.245171
32 1 1.48279 10.1923 -1.7375 2.66336 -1.18469 0.933482 0.246178 -4.04254 0.0914079 -0.0442564 0.408749
34 1 4.32744 10.195 -1.73652 -3.42019 -1.92301 1.41173 0.202927 -3.95359 0.0917494 -0.53303 0.166179
43 1 2.92107 11.628 -3.24008 2.17426 0.782241 3.50485 0.123848 -4.02486 -0.179508 -0.237392 -0.489811
133 1 2.87707 8.77788 -0.0440875 -1.44944 0.975575 0.710255 0.0934169 -3.89207 0.258468 -0.288055 -0.165896
141 1 0.146359 11.6297 -0.166643 -2.20193 -7.04944 -1.51669 0.341305 -4.00862 0.13158 0.0443669 0.0793286
143 1 2.92416 11.521 -0.0693851 -0.572232 1.1909 1.77002 0.168615 -4.02332 -0.211488 0.0951128 -0.362922
36 1 7.17897 10.1662 -1.61444 0.10168 3.47717 0.174941 0.17387 -3.87916 0.224292 -0.392882 -0.182904
47 1 8.63625 11.4798 -3.15341 -1.46078 2.66256 0.234251 0.299662 -3.96152 -0.386616 0.223937 -0.0446838
135 1 5.71447 8.72482 0.0376819 -0.880733 0.590278 -0.109653 5.78008 -3.9183 0.533271 0.215947 -0.399231
137 1 8.61908 8.74613 -0.138848 -4.19951 1.4167 -2.48788 0.38271 -3.97673 -0.327932 0.184127 -0.270249
145 1 5.78797 11.4174 -0.0666015 0.913579 -3.10787 0.676852 5.79365 -3.92927 -0.160121 0.554533 0.399615
147 1 8.63173 11.5707 0.0436421 -2.52053 -2.66134 -2.016 0.201539 -3.9667 -0.572632 0.302116 -0.807695
37 1 8.64539 8.6808 -3.12138 -0.410704 1.96136 0.795798 5.5067 -4.01658 -0.0717838 0.0528569 -0.0951754
41 1 14.1834 11.5242 -3.15762 -1.35835 -5.95404 3.83557 0.260203 -3.98029 -0.448505 0.544174 0.0742613
131 1 14.189 8.78043 0.0601095 -1.59748 2.05417 3.03081 0.432531 -3.88926 0.486587 -0.443354 0.0604015
38 1 10.1092 10.2499 -1.54096 0.647054 3.02786 -2.05404 0.501562 -3.97755 -0.262249 -0.401987 0.36372
39 1 11.3428 8.78317 -3.20783 2.80774 -0.622395 -1.00191 0.224506 -3.97209 0.202999 0.182822 -0.0750693
40 1 12.8549 10.1114 -1.52216 -1.75728 -0.634733 -0.267602 0.260927 -3.97257 -0.323015 -0.226001 -0.0570292
139 1 11.4119 8.69776 0.0239406 -0.425376 2.4171 -0.0430739 0.113845 -4.01664 -0.0568992 0.225142 -0.19397
149 1 11.4267 11.5446 0.024889 -0.904464 -0.906018 0.248794 0.183241 -3.9819 0.341714 0.530894 -0.514964
49 1 11.351 11.4979 -3.17707 -3.94296 -1.72452 -3.57845 0.147419 -3.93036 0.572232 0.0855748 0.12291
42 1 1.60077 12.9976 -1.75528 -0.841826 -0.173751 0.753914 0.444213 -3.96005 -0.652588 0.253772 0.420001
44 1 4.30049 12.9516 -1.77164 -1.17519 0.372824 -0.13007 6.15523 -4.02867 0.340898 -0.052709 0.0940488
52 1 1.58776 15.7356 -1.50796 -0.585983 1.26946 1.71295 5.24394 -3.83849 -0.458182 -0.174004 -0.23966
54 1 4.38463 15.6552 -1.66872 0.269637 0.959657 1.9614 0.284069 -3.99935 -0.473819 0.130939 -0.515283
153 1 2.9946 14.2978 -0.0552434 -3.03426 -0.361765 3.65674 0.16872 -3.92321 -0.305926 -0.22771 0.229523
46 1 7.13899 12.8477 -1.69523 -0.042375 -0.703018 -2.37022 5.30988 -3.93242 0.0769283 0.129296 0.558172
56 1 7.08452 15.7726 -1.75394 0.19616 0.505449 -1.21975 0.270262 -4.00726 0.197949 0.092175 0.185323
155 1 5.76502 14.3443 -0.116559 -0.699273 2.50818 -2.71856 0.105016 -3.96259 0.264051 -0.132076 0.248677
157 1 8.53251 14.4644 -0.0259726 1.77519 1.9958 -4.01974 5.26417 -3.96273 -0.181087 -0.0760219 0.0840673
57 1 8.49816 14.3386 -3.11261 5.27468 2.46447 0.151665 0.546247 -3.85774 0.141542 0.162693 -1.04869
51 1 14.0057 14.3518 -3.26366 5.08997 3.62125 -2.07853 4.98489 -3.8762 1.00364 -0.348831 -0.0307068
151 1 14.2009 14.4155 -0.0461971 -4.71089 2.01634 -0.85659 0.129059 -3.87851 -0.112698 -0.456079 0.0576968
48 1 9.93985 13.0563 -1.64062 2.86016 2.34417 0.701272 5.27555 -3.95297 0.0522007 -0.566586 0.132535
50 1 12.7181 12.9904 -1.64353 0.559624 -1.36974 -0.820506 0.186703 -3.95955 0.148532 0.0017162 -0.114026
58 1 9.99316 15.7186 -1.66005 -3.3381 -1.51398 5.38263 0.181955 -4.00158 0.366857 0.0516993 -0.0142498
60 1 12.7967 15.7437 -1.65398 1.53771 1.90327 -4.70531 0.115012 -4.00358 -0.436123 0.148487 0.590748
159 1 11.3491 14.3264 0.00774284 -0.265735 -1.65506 -3.98071 0.15568 -3.96715 0.173602 0.0483852 0.0170773
62 1 1.43944 18.5161 -1.61573 0.272627 0.831543 -0.200207 0.117847 -3.92222 0.416918 -0.0201909 -0.104414
64 1 4.38586 18.6552 -1.61124 1.24428 1.0664 2.86252 5.40948 -3.92565 -0.25485 -0.776903 0.0839555
163 1 2.94245 17.1558 -0.168087 0.341627 2.40032 0.506019 0.418729 -3.94799 0.0954069 0.289884 0.376377
171 1 0.141802 19.9783 0.0477748 -0.0590841 -1.37942 4.27312 0.180059 -4.02886 -0.542593 0.160032 -0.277886
173 1 2.89555 19.9823 -0.0788754 0.785649 -1.23368 2.3689 0.151379 -4.00234 -0.691743 0.00731872 0.0731892
66 1 7.24355 18.6165 -1.61208 2.75597 -4.35103 0.905848 5.70856 -4.02083 -0.393437 0.255216 -0.0990617
67 1 8.57677 17.1461 -3.23818 -4.30079 -3.56988 1.31798 0.0496086 -4.04526 -0.415495 -0.0746056 0.109491
165 1 5.78304 17.093 -0.126255 1.97311 1.99329 -0.167527 0.247467 -3.95012 -0.128432 0.465825 0.327032
167 1 8.56005 17.078 -0.183309 1.63712 1.01306 -0.622391 4.84217 -3.99867 0.0758717 -0.237121 0.481222
175 1 5.70632 20.007 -0.0511316 -3.42076 -2.85137 2.01629 0.137963 -3.95925 0.373478 0.198148 0.36908
177 1 8.58858 20.043 0.168635 -1.05917 0.80188 -0.731301 1.063 -3.92987 -0.118427 -0.256228 -0.605089
75 1 5.71713 19.9361 -3.25401 -4.53949 -0.9021 2.29786 0.135356 -3.954 -0.436461 0.0796352 -0.763207
65 1 5.67248 17.193 -3.21325 -1.31158 -3.63153 -0.620776 0.34328 -3.99365 0.103138 -0.158439 0.170007
161 1 14.1852 17.2046 0.0533675 -8.06951 -0.86164 0.0732044 0.22683 -4.03085 -0.326132 -0.150595 -0.4719
68 1 9.83757 18.5862 -1.5839 1.01621 0.95189 3.77626 5.47894 -3.99492 0.719909 0.278264 -0.138203
70 1 12.7582 18.5098 -1.62716 -2.75978 -0.241021 0.901339 0.159777 -3.88049 0.369507 0.156473 0.0120424
169 1 11.4357 17.1907 -0.0624073 -0.050047 0.778513 1.36961 0.11347 -3.94537 -0.426243 0.0329783 0.283427
179 1 11.4548 19.9395 0.0289126 0.478562 4.61523 -0.247094 0.255198 -3.98455 -0.361437 0.0711129 -0.322819
69 1 11.3235 17.1806 -3.15106 2.51938 -0.439877 2.89062 0.229722 -3.94736 0.166042 -0.25571 -0.292159
71 1 14.189 20.001 -3.14393 -3.02828 1.71166 0.793185 0.315716 -3.84599 -0.294971 -0.679442 -0.0406723
61 1 14.2026 17.0274 -3.18702 -2.79754 0.110739 5.17862 0.306595 -3.90616 -0.0558703 0.271396 -0.122685
72 1 1.54936 21.3951 -1.71553 2.3338 -3.4761 -2.56089 0.181327 -4.02812 0.074388 -0.144618 -0.143066
74 1 4.24289 21.3195 -1.57708 -0.775897 2.76848 -0.309503 0.386086 -4.09403 0.510695 -0.0423535 -0.598974
82 1 1.5098 24.075 -1.79292 -0.197856 1.54937 -4.05427 0.302704 -4.00729 -0.178642 0.451077 -0.403625
84 1 4.24694 24.1216 -1.63655 1.75243 2.83472 -4.12876 0.405326 -3.92411 0.747783 0.339086 -0.124
181 1 0.128659 22.763 -0.117334 -3.03311 -1.67311 -0.629939 0.0484841 -4.00931 -0.137538 -0.407403 -0.151569
183 1 2.89382 22.7594 -0.16258 0.572942 -1.11899 -0.365379 0.172356 -4.05126 -0.324733 0.0542014 0.498815
76 1 7.14056 21.2635 -1.66449 -0.691281 0.193514 1.05787 5.48205 -3.84394 0.131405 0.633381 0.188893
86 1 7.25436 24.2668 -1.66169 -2.43118 3.29649 -1.15762 5.82506 -3.8541 -0.151293 -0.220389 -0.292783
185 1 5.72509 22.8979 -0.157179 3.67767 -2.14848 -3.35625 0.479826 -3.98948 -0.137232 -0.956274 0.148174
187 1 8.47118 22.692 0.0253526 -0.732136 -0.532565 -1.73565 5.3289 -3.95978 -0.172067 -0.172909 -0.172394
78 1 9.92402 21.3232 -1.72361 -2.14879 -1.2859 1.20999 0.232791 -3.96839 -0.0522006 0.0888806 0.458269
80 1 12.7264 21.3466 -1.64377 -2.02506 0.894117 1.33119 0.0653782 -3.92644 0.191995 -0.0952793 -0.105261
88 1 9.99398 24.1702 -1.61828 -1.34963 2.3224 -3.76156 0.213436 -3.94503 -0.541064 0.00620666 0.36853
90 1 12.8226 24.1983 -1.75884 -3.32555 -1.34099 0.789537 0.186878 -3.90799 -0.825205 -0.282405 0.402942
189 1 11.404 22.6532 -0.136584 1.1462 2.87937 3.03823 0.293861 -3.88196 0.34142 0.747883 0.188061
92 1 1.49183 27.0716 -1.67587 -1.55268 0.823337 -0.21304 0.0698426 -3.92043 -0.370056 -0.341002 -0.127229
93 1 2.95679 25.6072 -3.24321 -2.98218 -1.24306 2.03838 0.177888 -3.93287 -0.153228 0.125405 -0.28951
94 1 4.31233 27.0701 -1.50771 -2.42482 -0.468398 -1.32983 0.716667 -3.91704 -0.340584 0.219711 -0.16232
193 1 2.87926 25.4829 -0.146823 -1.0862 0.475835 1.41936 5.65126 -3.92359 -0.214999 0.482234 -0.00491577
5 1 5.72241 28.2956 -3.17833 2.69086 -0.906142 0.0342517 5.17802 -3.95886 -0.270748 0.0880386 -0.166592
107 1 8.62684 28.3911 -0.0327397 1.62718 -2.83475 -3.52836 5.72219 -4.02372 0.192943 0.888325 -0.267649
96 1 7.19496 27.0059 -1.67351 3.8854 -2.09663 -3.2721 0.0396291 -4.02111 -0.0793333 0.0483565 0.526854
195 1 5.7699 25.6353 -0.130838 -1.7019 -1.17403 1.74296 0.14114 -3.88797 0.202378 0.160505 0.197253
197 1 8.65402 25.6862 -0.074648 -0.592902 -0.620959 0.00800132 0.327686 -4.01726 -0.324761 -0.607926 -0.135874
7 1 8.51249 28.4072 -3.15589 0.305773 -1.36188 3.04787 0.357076 -3.95412 0.248425 -0.0397819 -0.494738
191 1 14.1954 25.5315 -0.121021 -0.0885336 -4.4938 -0.48509 0.20918 -3.88844 0.340531 0.367552 -0.350968
98 1 9.85719 27.0277 -1.72059 2.60699 4.64685 0.62246 5.59476 -4.05428 0.598527 0.24355 0.0316289
100 1 12.8111 27.1397 -1.66219 0.688756 2.41483 -3.36628 0.111693 -3.93978 0.225333 -0.61671 -0.0812083
199 1 11.3947 25.7747 -0.0729719 -1.77748 -0.753815 0.440887 0.587958 -3.8959 0.65433 -0.4093 -0.460053
99 1 11.3966 25.6653 -3.19778 -3.11862 -0.640777 0.494149 0.143117 -3.97461 -0.200463 -0.110485 0.31258
102 1 1.43258 1.58866 1.5529 7.38627 -3.29026 1.48818 0.299066 -4.02131 0.60034 -0.101832 0.356814
104 1 4.40471 1.70471 1.45742 -2.62904 -0.431866 -2.50035 0.236089 -3.92952 -0.568319 0.146038 -0.299405
202 1 1.64591 1.56967 4.59504 2.02744 3.5456 -1.59179 4.73063 -4.02516 -0.64108 0.912978 0.159364
203 1 2.94499 0.259696 3.07555 -1.3304 -3.48688 0.0854903 0.130808 -4.03775 -0.0115506 0.259549 -0.320501
204 1 4.18458 1.68524 4.68094 -0.935437 1.48785 2.63114 4.6677 -3.98022 0.915406 -0.247878 -0.39532
213 1 2.88677 3.08084 3.03931 -2.28947 -0.845795 -1.07431 0.364871 -3.99831 -0.00502936 -0.408225 -0.314762
106 1 7.15632 1.63052 1.44148 0.736671 -1.16949 0.0239501 0.251769 -4.04064 0.635514 0.517331 0.355484
205 1 5.64874 0.299036 2.93332 2.33469 0.995414 0.291621 4.7478 -3.89055 0.492666 -0.227818 0.591739
206 1 7.2548 1.68985 4.6402 -1.46106 -1.55409 1.7364 4.90557 -3.93459 -0.495495 -0.749593 -0.392418
207 1 8.58474 0.236208 3.15576 1.31666 3.04051 1.49325 0.157649 -3.94666 0.147227 -0.225889 -0.778025
215 1 5.78167 2.95842 3.21116 -1.49422 -2.50707 3.51511 0.53849 -3.94424 -0.604959 0.0491463 -0.464136
217 1 8.60442 3.0921 3.10004 -1.80041 2.92479 -5.24384 0.123214 -4.0088 -0.435026 0.156048 0.205412
201 1 14.2143 0.277593 3.1596 -0.76465 1.66164 -3.30675 0.327694 -3.98748 -0.00985829 -0.346234 -0.0898557
211 1 14.1953 3.09372 3.21656 0.131749 -3.47244 0.658656 0.284935 -3.92263 0.311873 -0.296468 -0.0528741
108 1 9.98023 1.81548 1.57571 1.78008 -0.0382443 0.481447 5.73197 -3.88184 0.351102 -0.986626 -0.140198
110 1 12.7567 1.63776 1.48058 0.143622 0.261967 0.471904 0.16489 -3.86767 0.36315 0.359711 0.577183
219 1 11.4042 3.08595 3.12623 2.96876 -3.6 -0.306264 0.0664542 -3.9227 0.0468514 -0.0975779 -0.101834
112 1 1.47335 4.44722 1.64115 -2.08488 5.53109 1.88305 0.251193 -3.93427 0.0718981 0.652657 0.202282
114 1 4.45714 4.53943 1.65424 0.408107 -1.46821 1.68028 5.28373 -4.00441 -0.0739186 -0.183714 -0.439722
122 1 1.5387 7.19477 1.60652 -2.178 2.10286 -1.52883 0.26863 -3.86438 -0.313898 0.0399609 -0.212886
124 1 4.30599 7.3213 1.58262 -1.70609 -0.894295 0.386355 0.160707 -3.93439 -0.0746725 0.202329 0.12689
223 1 3.00176 5.86832 3.16783 -2.9209 -3.41332 -1.19244 0.120449 -3.98972 0.058692 0.10668 0.0405313
116 1 7.08446 4.43511 1.58307 -0.717838 -0.661302 1.69127 5.39324 -3.97408 0.41186 -0.0062759 0.0306775
126 1 7.33953 7.39572 1.56091 1.37971 -3.46356 0.697126 5.59348 -3.86866 -0.339227 -0.16868 -0.40449
216 1 7.15048 4.45322 4.59653 0.663868 1.20315 1.59813 0.356665 -4.02925 -0.0236672 0.640049 0.16088
225 1 5.7941 6.05956 3.0782 0.299468 -1.75276 -1.18853 5.68042 -3.93562 0.218998 -0.484064 0.214298
227 1 8.61587 5.8789 3.08513 -0.532809 -0.371899 0.126652 0.139763 -3.9521 -0.0857971 0.0155507 0.162407
221 1 14.1524 5.86373 3.18264 0.796103 -1.93786 -0.0692733 0.132821 -3.98466 -0.125654 0.406337 0.0552538
118 1 10.0291 4.4796 1.5441 -2.00022 0.251406 -1.34662 0.107025 -4.03178 -0.418684 0.290525 -0.16047
120 1 12.7727 4.51546 1.47689 -2.93314 -0.0391201 0.674702 0.121358 -3.98512 -0.0732773 -0.178669 0.633164
128 1 10.0124 7.32217 1.49288 -2.7644 2.28321 3.1472 5.70678 -4.01747 -0.469669 0.0810225 0.193852
130 1 12.7448 7.26336 1.4991 -1.8326 -3.86476 -3.53257 0.171433 -3.99914 0.515735 -0.162273 0.457644
218 1 9.92391 4.44006 4.71485 2.54663 2.02038 1.45237 0.0896596 -4.00665 0.345748 0.299421 -0.128745
220 1 12.7806 4.44772 4.70622 -0.879614 -1.25736 1.20844 0.0655877 -3.87793 -0.392579 0.0135813 0.487036
229 1 11.2652 5.91426 3.16138 0.58398 1.74186 -1.1864 5.32765 -4.00185 1.06829 -0.141439 0.158524
230 1 12.8446 7.35538 4.62751 2.31232 0.678649 1.21522 0.281641 -3.9592 -0.13603 -0.627061 0.125099
132 1 1.49806 10.2454 1.45729 0.926583 1.77752 2.20689 0.208561 -3.95751 -0.122992 -0.695079 0.501021
134 1 4.33421 10.2257 1.6015 -1.95039 -2.01599 -1.69927 5.5067 -3.92477 0.242934 -0.61269 0.116073
233 1 2.86938 8.7146 3.18536 -0.683116 0.194601 5.31636 0.148575 -3.87476 0.315665 -0.346614 -0.454729
234 1 4.30212 10.2221 4.71268 -0.621179 0.157015 -0.123602 5.55239 -3.94801 0.62906 -0.180378 0.195584
241 1 0.149986 11.5192 3.0797 -2.41095 0.904273 -0.0212207 0.0955583 -3.99835 -0.321458 -0.150229 -0.0386777
243 1 2.87755 11.525 3.02417 -0.234391 0.744033 0.670144 0.261734 -3.97041 -0.184475 0.0250163 0.368775
136 1 7.34978 10.1327 1.57768 0.629619 0.98562 1.20116 5.10742 -4.02459 -0.503758 -0.0778995 0.0471613
235 1 5.87066 8.81598 3.04939 0.465343 -1.43871 1.4062 0.398697 -3.9667 -0.28833 -0.727761 -0.0576445
237 1 8.63235 8.75913 3.28418 2.56455 0.935182 0.542097 0.400281 -4.06165 -0.304923 -0.0174723 -0.143649
245 1 5.87987 11.5851 3.11745 0.240801 -0.541356 -0.243051 0.425792 -3.95889 -0.410835 0.186143 -0.245738
247 1 8.6244 11.498 3.23251 0.432483 -3.51449 2.45946 0.206839 -4.04467 0.175189 0.365616 0.0535625
231 1 14.2058 8.74973 3.07862 -0.187028 1.52542 1.17023 0.0879917 -4.00088 0.413984 0.00442736 -0.00936828
138 1 9.92992 10.142 1.50707 -1.64946 -2.47072 4.24093 5.36534 -4.05348 0.552686 -0.568152 0.0581693
140 1 12.8378 10.2224 1.51569 -3.06779 0.590986 0.953237 0.201847 -4.01307 -0.780741 -0.295109 0.423234
239 1 11.364 8.67474 3.08639 1.07823 -1.10089 5.00007 0.103132 -3.99908 0.541245 -0.0153946 0.169748
240 1 12.788 10.0949 4.55368 0.473313 1.12475 -2.36237 5.21989 -3.90544 0.0725262 0.149381 0.369374
249 1 11.3994 11.5636 3.22113 0.00818624 4.09037 -1.73351 0.267069 -3.9889 -0.274858 -0.111656 -0.348208
142 1 1.52181 13.0509 1.62415 -1.28477 -4.17543 2.9049 0.372429 -3.99341 0.214452 0.19294 -0.0653005
144 1 4.29805 12.8216 1.44635 1.81958 -2.20134 0.0142737 4.99856 -3.94511 0.638331 0.380908 0.202578
152 1 1.51339 15.8576 1.59857 -0.669006 2.84052 -0.820189 5.48107 -4.06422 0.613282 -0.728785 -0.328266
154 1 4.25725 15.7179 1.50736 2.46855 -1.35996 -1.82568 0.310853 -3.95077 0.672042 0.0519184 -0.182811
242 1 1.53992 12.9165 4.67998 0.280113 3.4737 -1.1283 0.128031 -4.01486 0.0673175 0.152734 -0.284557
244 1 4.24982 12.7782 4.70846 2.14938 -0.0921022 -0.749942 5.48374 -3.9564 0.386619 0.145521 -0.0791538
251 1 0.128475 14.4623 3.18513 2.68999 -0.1114 0.508103 0.233554 -3.95756 -0.123561 -0.0251595 0.0370373
252 1 1.63436 15.7834 4.58632 -3.12021 0.366244 0.726554 4.7327 -3.91966 -0.0724874 -0.101853 0.192926
253 1 3.02926 14.3678 3.15814 0.643288 -2.70259 -2.00417 0.366838 -3.95268 0.0151974 -0.255661 -0.1058
146 1 7.13468 12.9886 1.52273 1.04428 0.1527 -2.62964 0.133688 -3.84363 0.342899 -0.54048 0.172027
156 1 7.1141 15.8395 1.55153 -5.45427 -4.00032 2.42238 0.301941 -3.9725 0.419004 -0.283416 0.108261
255 1 5.79332 14.3612 3.0695 0.949383 2.2935 -3.25327 0.186478 -3.95237 -0.70415 -0.153342 0.101815
256 1 7.19239 15.8423 4.60945 -0.861153 0.781607 -0.146585 0.401935 -4.00917 0.622654 -0.198993 0.185474
257 1 8.60857 14.4287 3.17574 -2.00567 3.54744 2.76289 0.0762212 -3.94548 -0.25238 -0.35772 -0.4667
148 1 10.0789 12.8625 1.62681 2.53119 -0.204599 1.59625 5.33639 -3.93153 -0.738597 0.411715 0.176889
150 1 12.8144 12.9078 1.5906 0.842405 -1.04171 -0.584461 0.16443 -4.02663 0.425596 0.459262 -0.0538246
158 1 10.0599 15.8093 1.6086 1.95172 -4.28031 -2.67566 0.268502 -3.90974 0.0920463 -0.445611 0.0616811
160 1 12.7974 15.8078 1.50227 2.05154 2.79304 -0.0709358 0.207652 -3.95732 0.27381 -0.23811 0.458983
250 1 12.9049 12.9601 4.65781 1.45982 -1.9964 -1.75047 0.281668 -3.99443 -0.235418 -0.463194 0.344764
259 1 11.5154 14.2983 3.11579 2.36546 0.76793 -0.871017 0.270348 -4.00054 -0.820796 0.344472 0.103466
162 1 1.61205 18.4318 1.53636 0.103087 0.473685 0.329909 5.20783 -3.96429 -0.0805324 0.652227 -0.0863399
164 1 4.41893 18.6151 1.41512 -0.211573 3.22505 -5.20284 0.366153 -3.96674 -0.321781 -0.392674 -0.144447
262 1 1.64124 18.6991 4.69641 -1.57751 0.894061 -4.43727 5.21178 -3.99211 -0.416102 -0.628415 0.240178
263 1 3.02324 17.1738 3.10162 -2.37006 -0.133771 0.32695 0.275523 -4.00946 -0.00445026 0.128916 0.25818
271 1 0.239882 19.931 3.00418 -2.9132 -1.24747 -1.34561 0.622412 -3.98359 -0.370748 -0.227989 -0.0336236
273 1 3.06119 20.0027 3.1187 0.40391 -0.0741893 3.19324 5.59308 -3.96744 -0.240573 0.0196766 -0.237604
166 1 7.16241 18.5363 1.51692 0.698547 0.150344 -2.49931 0.192115 -3.997 -0.00498734 -0.0649116 0.127401
265 1 5.71847 17.1429 3.24538 -1.6126 -0.82668 -3.54668 0.472139 -3.97846 -0.0745257 0.0898046 -0.328927
266 1 7.25348 18.553 4.61077 1.95445 3.37989 -0.145865 5.10019 -3.89984 -0.501028 -0.110825 -0.0312133
267 1 8.63962 17.1234 3.03936 1.62128 1.24999 -1.44411 0.278042 -3.95229 -0.406295 0.0511795 -0.0399353
275 1 5.66392 19.9514 3.12536 0.0670137 -1.38317 -3.87798 5.20836 -3.96948 0.603025 0.0677589 0.0532072
277 1 8.52362 20.0544 3.11401 0.898333 -0.0775842 -0.479706 0.262795 -3.99482 0.742043 0.229359 0.173579
261 1 14.1769 17.1487 3.1998 3.22524 -0.724689 1.23685 0.362969 -4.01225 0.125568 0.123546 -0.053208
168 1 9.9888 18.5753 1.56227 -3.61858 0.233632 -1.83299 0.224088 -3.93132 0.158412 -0.177702 -0.188081
170 1 12.8038 18.6463 1.67444 0.900172 4.64776 -2.52583 0.351668 -4.0073 -0.160533 -0.497063 -0.09153
269 1 11.4148 17.1891 3.31188 1.22914 3.37173 -1.05524 0.425599 -3.96796 0.118048 0.092828 -0.694711
270 1 12.909 18.7314 4.70198 -1.75346 -1.91228 -0.862528 5.51121 -3.93518 -0.403718 -0.0345797 0.219236
279 1 11.3598 20.0486 3.09087 2.0114 -4.45816 0.994583 0.281684 -3.90978 -0.593177 -0.157504 0.399546
172 1 1.47279 21.4257 1.56555 2.33301 -0.225112 2.95214 0.285553 -3.98207 0.703473 0.127019 -0.0604362
174 1 4.32705 21.4567 1.40343 -1.27528 -0.710527 -1.51037 0.290395 -3.98554 0.136716 0.160322 0.173745
182 1 1.5749 24.1646 1.5152 -0.784188 -3.79054 -2.16947 0.0656941 -3.99646 -0.775787 0.322126 0.559609
184 1 4.3073 24.238 1.47006 -0.587332 0.565944 -1.32797 0.14718 -3.98211 0.246441 -0.512276 -0.599721
272 1 1.50093 21.4332 4.61694 -1.3891 0.701157 2.48604 0.393744 -4.03819 -0.051389 -0.513695 0.48434
281 1 0.183488 22.7914 3.18191 -2.74019 0.616667 0.622568 0.168137 -3.93651 0.0168176 0.124954 -0.220249
283 1 2.92311 22.8102 3.20071 1.18139 2.06881 4.32688 0.191238 -3.91518 0.563824 0.142521 0.173536
176 1 7.06694 21.3141 1.58744 -3.95137 -1.5893 -1.01736 0.40067 -4.00187 -0.191139 0.417626 -0.284885
186 1 7.17879 24.1447 1.41759 2.78581 2.06017 1.88695 0.200489 -3.89863 -0.125178 0.615696 0.188985
285 1 5.85589 22.7635 2.98271 1.31531 1.02106 -0.50399 0.57472 -3.91108 -0.599457 0.482115 0.864473
287 1 8.6565 22.7436 3.03118 2.42 3.87829 -0.705154 4.99446 -4.0678 -0.163714 0.359408 0.564086
178 1 9.99102 21.4199 1.47505 -1.13098 -1.50552 3.15931 0.259121 -4.02781 0.275121 -0.118573 -0.22876
180 1 12.8404 21.4228 1.61472 -0.471497 0.0061306 0.269058 0.3148 -4.09239 -0.193831 0.0429976 0.355227
188 1 10.0407 24.0693 1.36343 -1.30348 -2.27273 0.479064 4.89676 -3.88618 -0.226403 0.983644 -0.342711
190 1 12.925 24.1389 1.48587 -1.55903 -2.12372 1.13416 5.66314 -3.87321 -0.696407 0.440103 0.452481
280 1 12.8739 21.3633 4.63176 1.61778 1.13426 1.57654 5.69389 -4.00389 -0.1737 0.0156875 0.0222793
289 1 11.3072 22.8471 3.11967 -3.96248 4.07387 -0.259648 0.500822 -3.99746 0.0684411 -0.341145 0.389231
290 1 12.8777 24.1232 4.69074 1.06046 -1.98762 3.24564 0.241288 -3.99381 -0.137161 0.206361 0.281007
192 1 1.54582 26.9795 1.54976 0.832332 -0.820942 0.130328 5.31602 -3.99944 0.134145 0.0455249 0.260143
194 1 4.33343 27.1078 1.48943 -1.61671 -3.20912 1.28134 0.255009 -3.95748 -0.333616 -0.570539 -0.653455
291 1 0.123486 25.6243 3.24331 -1.91934 -0.395923 -0.219087 0.4121 -3.92973 -0.185431 0.11166 -0.0569607
292 1 1.58125 27.1181 4.60173 0.521729 -0.104332 -0.21211 5.40601 -4.0228 0.00143739 -0.39455 -0.151567
293 1 3.0799 25.6086 3.09024 2.80973 1.17343 -0.298043 5.93084 -3.91004 -0.792644 -0.171733 0.198564
294 1 4.2495 27.1204 4.68289 -1.17778 2.9951 1.58236 0.255935 -3.95596 0.61552 0.164507 -0.090083
196 1 7.3038 27.0489 1.6385 3.37805 -2.98627 4.17109 4.93968 -3.91954 -0.864692 0.113832 -0.725539
295 1 5.73558 25.636 3.0683 2.43808 0.681994 -1.51506 0.166517 -3.9675 0.54079 0.121103 -0.111569
296 1 7.17419 27.0665 4.59103 0.309675 6.50899 -1.89168 0.262149 -3.90342 -0.332326 0.121759 -0.347172
297 1 8.56397 25.5256 3.11719 -0.134748 1.31643 -3.31811 0.360432 -3.95284 0.554838 -0.0310897 -0.238146
209 1 11.3537 28.3011 3.18769 -0.393176 -1.47754 0.78913 5.97995 -3.84463 0.494478 0.460659 -0.651127
198 1 9.95313 27.0869 1.42421 0.689763 -0.698924 -1.31982 5.21178 -3.84571 0.179978 -0.405513 0.996276
200 1 13.0099 27.0067 1.48092 5.30296 -0.270392 0.651806 5.58803 -3.89279 -0.640151 0.219435 0.366559
299 1 11.357 25.6421 3.16198 0.613569 6.18239 1.53807 6.32104 -3.85026 0.169154 -0.451359 0.0173763
301 1 0.190771 0.330155 6.16923 0.5675 -0.168496 -2.46061 4.98268 -4.0272 0.276995 -0.697482 0.0463533
302 1 1.52998 1.64637 8.03673 -1.42736 -3.15682 0.972455 0.319195 -3.97953 -0.138165 -0.527681 0.0630375
303 1 2.87995 0.257353 6.33124 0.341516 -0.0404191 -2.60214 0.18933 -4.03194 0.214914 -0.549361 0.12093
304 1 4.29008 1.6221 7.86965 -4.04083 -0.468429 4.02966 0.15981 -3.91242 0.149378 0.46834 0.564776
311 1 0.149724 2.85167 6.3225 -1.74976 0.28104 0.763369 5.27351 -3.89609 -0.198538 1.05948 -0.671903
313 1 2.89377 2.99568 6.20317 0.148637 -0.416692 -0.495992 0.367593 -3.89638 -0.357096 0.461192 0.510579
305 1 5.63949 0.272746 6.32669 -2.6762 0.601797 -1.53878 5.29282 -3.85391 0.687414 0.220411 -0.433812
306 1 7.16827 1.7968 7.90056 -0.497955 1.38302 -0.554626 5.87726 -3.89375 -0.309601 -0.736299 0.479437
307 1 8.54451 0.339894 6.37341 2.06573 -1.47317 -0.377265 0.335349 -3.98464 -0.597038 -0.944038 -0.0347941
315 1 5.88369 2.98404 6.23865 0.746495 3.22544 0.384377 5.35446 -3.98354 -0.756435 0.539362 0.32681
317 1 8.5575 3.091 6.23999 0.877774 1.33708 0.284955 0.0783862 -4.10182 -0.0756341 0.234278 -0.0964961
208 1 9.93587 1.5992 4.73415 -2.11946 3.54369 -4.60115 0.124648 -4.06991 0.599252 0.222258 -0.0673287
210 1 12.7168 1.62492 4.76404 1.93469 -2.84729 3.21644 0.360615 -3.94066 -0.272418 0.140254 -0.287773
308 1 9.85407 1.73124 7.855 -3.32365 0.641461 0.348771 0.208622 -3.96898 0.396548 -0.503669 -0.0971984
309 1 11.427 0.271834 6.37121 2.261 -0.338001 1.59023 0.157677 -3.9547 -0.305181 0.0899107 0.139913
310 1 12.8338 1.67333 7.87739 -2.12593 2.9352 -1.91821 0.175085 -3.94924 -0.106108 -0.344105 0.154177
319 1 11.2832 3.0542 6.33055 1.40137 -1.12676 -0.599603 0.110682 -4.00517 0.472102 0.00328675 -0.474233
212 1 1.5107 4.56417 4.74066 1.71349 1.1107 -0.37813 5.50827 -3.98738 0.0838497 -0.256006 0.202041
214 1 4.35594 4.34938 4.75976 -3.60792 0.888428 1.10906 5.01697 -3.94814 -0.175213 0.364962 -0.408117
222 1 1.54559 7.23945 4.71805 2.60978 -1.28947 -2.65909 0.159286 -4.00062 -0.168219 -0.227035 0.0619339
224 1 4.45542 7.31972 4.75588 2.28078 -2.16034 3.83898 0.306158 -3.94101 -0.457002 0.0751513 -0.615722
312 1 1.51633 4.46751 7.83077 6.58074 -1.87872 -2.48992 0.252891 -3.97761 0.255068 0.0666689 0.0884009
314 1 4.38482 4.47065 7.95171 1.38421 -0.500902 1.94911 5.84851 -3.8864 -0.31856 -0.288204 -0.187127
322 1 1.50912 7.24612 7.81625 2.77664 -2.04083 2.3912 0.11331 -3.95629 -0.201139 -0.389441 0.0127966
323 1 3.05231 5.91185 6.25342 -1.31866 2.39502 -0.268551 0.266762 -3.95818 -0.116294 -0.306205 0.275982
324 1 4.3708 7.29584 7.84535 1.4459 0.563605 -1.51929 0.130774 -3.98151 0.110309 -0.160781 -0.0462611
226 1 7.22143 7.27669 4.72097 -1.92098 2.73055 -2.00716 0.112573 -4.01241 0.291768 -0.0470683 0.660672
316 1 7.10763 4.57462 7.88541 2.31643 -3.52172 -0.258836 0.36216 -4.0043 0.0423307 -0.752254 0.214793
325 1 5.76431 5.8264 6.1928 -2.43851 2.57701 -2.10025 0.266926 -3.97721 0.255139 -0.0029207 0.250396
326 1 7.19795 7.24786 7.79446 -1.71798 -0.00966545 0.572563 0.270157 -4.03274 -0.239741 0.292564 -0.350569
327 1 8.55272 5.78657 6.40445 -1.12912 -0.410511 1.0442 0.550837 -3.96036 0.273798 0.164888 -0.568815
228 1 9.92162 7.27115 4.80407 0.0778168 -0.255412 1.79302 0.268278 -3.98503 0.391419 0.309039 0.493263
321 1 14.1448 5.82456 6.29437 4.06995 0.134137 -0.309495 0.201052 -3.96007 0.461853 0.196554 -0.0684469
318 1 9.98504 4.43593 7.8494 1.75132 -4.65897 3.2673 0.0897749 -4.00231 0.18731 0.199727 0.0203522
320 1 12.7757 4.48205 7.85648 1.89733 -3.11783 2.82706 0.18857 -3.93436 0.318173 -0.987344 0.243498
328 1 10.0129 7.28399 7.72612 2.65819 -0.927283 -2.4793 0.527015 -3.96364 -0.110602 0.190366 0.103691
329 1 11.4291 5.87426 6.27638 1.9858 -1.38951 -0.786356 0.0754067 -3.98137 -0.117717 -0.243161 -0.28649
330 1 12.8425 7.28945 7.87879 -1.97867 0.420953 -1.07444 0.096358 -4.04137 0.194905 0.143731 0.00640386
232 1 1.56015 10.1641 4.73536 2.12226 0.0705619 -0.681687 0.220112 -4.01599 -0.326122 0.159136 -0.397592