ITEM: TIMESTEP
18250
ITEM: NUMBER OF ATOMS
2000
ITEM: BOX BOUNDS pp pp pp
1.0838953229856951e-01 1.4221610467701321e+01
2.1677906459713903e-01 2.8443220935402643e+01
-8.1574434947922381e-02 5.7401574434947484e+01
ITEM: ATOMS id type x y z vx vy vz c_csym c_peratom fx fy fz
2 1 1.62332 1.66863 1.36285 -0.282889 -3.25185 -0.636516 0.277183 -4.10771 -0.273221 0.0171486 -0.267863
4 1 4.35789 1.61575 1.29307 0.990702 -5.33602 3.45801 0.216028 -4.14652 0.282522 0.113364 0.554679
11 1 0.115605 3.14255 -0.0351445 0.617832 -0.194419 3.50607 0.200375 -4.07132 -0.474729 -0.0795853 -0.333736
101 1 0.126621 0.284403 2.76637 -1.57173 1.46596 2.1275 0.151392 -4.10769 -0.286475 -0.161897 0.0665484
103 1 2.85007 0.270771 2.824 0.287695 0.367304 -1.8153 0.236281 -4.00768 0.581713 -0.176899 0.0916225
111 1 0.168447 3.08626 2.79195 -2.2925 0.592843 0.179022 0.129875 -4.15813 0.0746465 -0.0495246 -0.404906
113 1 2.87763 3.13123 2.84561 -1.71434 2.42111 -1.1208 0.324765 -4.0838 -0.0953059 -0.151933 -0.126917
13 1 2.94284 3.10367 -0.0631806 -0.0706192 -1.95523 0.774801 0.0712888 -4.04263 0.0501835 0.203845 -0.182142
6 1 7.17995 1.58532 1.35631 -1.53139 -1.81767 -2.43971 0.224155 -4.10916 -0.00329509 0.757502 0.171795
17 1 8.63608 3.25517 -0.0146512 -1.24355 -0.0988133 -0.860341 4.88434 -4.0605 -0.638784 -1.2567 -0.179898
105 1 5.90739 0.22905 2.79335 0.812795 -1.48127 -4.16198 0.293393 -4.08274 -0.854007 -0.195881 -0.233068
115 1 5.79048 3.13764 2.7791 -0.932742 0.818202 0.0439582 0.179002 -4.04799 -0.395894 -0.777742 -0.0512003
117 1 8.60233 3.08029 2.8568 0.475293 0.415756 -1.302 0.155799 -4.071 -0.151326 0.102617 -0.92891
15 1 5.86915 3.09703 -0.0263468 -1.1078 -3.23994 -0.243916 0.286658 -4.02516 -0.434441 0.166905 -0.429713
8 1 9.98472 1.71462 1.24484 1.02028 2.64764 -1.65962 0.365662 -4.05828 -0.854487 0.076688 1.53033
9 1 11.3244 0.287262 0.015462 -0.628437 1.37052 0.162777 0.376835 -4.05118 1.10488 -0.268532 -0.658898
10 1 12.8557 1.68831 1.29358 -0.261261 2.58464 0.684826 0.128732 -4.04093 -0.242022 0.422284 0.600029
109 1 11.3921 0.306018 2.76444 4.17545 -4.26001 3.01885 0.165695 -4.09778 -0.287706 -0.230036 0.214259
119 1 11.4562 3.11085 2.71216 -0.877516 0.612354 1.13148 0.147894 -4.116 -0.341652 -0.432928 -0.0138794
12 1 1.52356 4.6359 1.26405 1.18436 1.40208 1.05812 0.551341 -4.06128 0.0633543 -0.448278 0.488823
14 1 4.34915 4.42365 1.4527 -0.761965 1.11821 -1.53086 0.26757 -4.10341 0.113383 0.104196 -0.629152
22 1 1.54026 7.32431 1.29041 0.529166 1.27637 -0.648244 0.232394 -4.051 -0.24439 -0.274945 0.814527
23 1 3.01689 5.92797 -0.0549673 4.21453 0.286138 -0.65637 0.22068 -4.05399 -0.195524 -0.178827 -0.249163
24 1 4.35552 7.36387 1.35801 0.718611 1.41969 0.425215 0.10419 -4.03346 -0.238091 0.21806 0.0949797
121 1 0.132435 5.82793 2.78525 -2.35864 3.10392 -0.471262 0.181499 -4.04291 0.223087 0.748305 -0.253608
123 1 3.01618 5.86763 2.87696 1.00139 1.8653 -1.24788 0.25048 -4.14093 -0.288389 0.0841567 -0.0897968
16 1 7.14135 4.5226 1.43229 0.603539 0.154603 0.133915 0.148537 -4.06384 0.329787 -0.077688 -0.348437
25 1 5.70759 5.92495 0.0319959 -0.827089 1.1553 2.35682 0.307958 -4.14535 -0.356643 -1.04507 -1.15064
26 1 7.1412 7.16975 1.31029 -0.0337704 2.62343 0.778117 0.5191 -3.93526 0.306655 1.22434 0.735607
125 1 5.74127 5.95799 2.82696 -0.136011 -2.75282 -0.154075 0.137513 -4.20035 0.0196863 -0.0394001 0.158815
127 1 8.57446 5.88387 2.69656 -1.51658 -3.67076 0.00771245 0.345452 -4.10147 0.173998 -0.177959 0.602339
18 1 10.0587 4.47472 1.35942 2.01504 1.15568 0.108705 0.207318 -4.05704 0.0457631 0.632084 0.0155388
20 1 12.7939 4.54238 1.32703 -0.022531 3.00342 -1.17168 0.0577137 -4.12665 0.184165 -0.200557 0.0136937
28 1 10.1169 7.35391 1.44534 1.08986 -1.21663 1.80841 0.39501 -4.02826 -0.757388 -0.486889 -0.279996
29 1 11.4127 5.98723 -0.0643811 1.3822 1.47477 -0.555896 0.0532792 -4.1305 -0.433884 -0.306503 -0.160005
30 1 12.8531 7.28188 1.41798 0.362699 -0.519128 0.486825 0.133761 -4.14963 -0.402924 0.750145 -0.222049
129 1 11.3642 5.90889 2.83385 -0.995542 1.01394 2.2528 0.10662 -4.11047 0.00270055 -0.29952 0.0229144
32 1 1.48279 10.1923 1.29284 2.66336 -1.18469 0.933482 0.212434 -4.12826 0.545204 -0.506343 0.501445
34 1 4.32744 10.195 1.29372 -3.42019 -1.92301 1.41173 0.181333 -4.08172 -0.433512 -0.65947 0.27206
43 1 2.92107 11.628 -0.0599398 2.17426 0.782241 3.50485 0.111274 -4.09541 0.136899 -0.566368 -0.158034
133 1 2.87707 8.77788 2.81744 -1.44944 0.975575 0.710255 0.0890465 -4.08696 0.0774358 -0.103499 -0.187026
141 1 0.146359 11.6297 2.7071 -2.20193 -7.04944 -1.51669 0.293067 -4.11768 0.416909 0.276776 0.460958
143 1 2.92416 11.521 2.79466 -0.572232 1.1909 1.77002 0.158202 -4.12199 -0.525615 0.29732 -0.4991
36 1 7.17897 10.1662 1.40363 0.10168 3.47717 0.174941 0.159987 -3.99689 0.138235 -0.113805 -0.188785
47 1 8.63625 11.4798 0.0180868 -1.46078 2.66256 0.234251 0.271926 -4.07661 -0.320941 -0.0700758 -0.558169
135 1 5.71447 8.72482 2.89106 -0.880733 0.590278 -0.109653 0.276538 -4.10091 0.770447 -0.214474 -0.609831
137 1 8.61908 8.74613 2.73212 -4.19951 1.4167 -2.48788 0.344835 -4.11491 -0.0257328 0.00965625 0.0338733
145 1 5.78797 11.4174 2.79717 0.913579 -3.10787 0.676852 0.313392 -4.07246 -0.449687 0.529762 0.180121
147 1 8.63173 11.5707 2.89642 -2.52053 -2.66134 -2.016 0.179719 -4.09249 -0.38562 0.537684 -1.14371
37 1 8.64539 8.6808 0.0469226 -0.410704 1.96136 0.795798 0.34744 -4.14418 -0.664397 0.0985096 -0.155964
41 1 14.1834 11.5242 0.0142934 -1.35835 -5.95404 3.83557 0.231638 -4.06695 -0.158427 0.722994 -0.16704
131 1 14.189 8.78043 2.91125 -1.59748 2.05417 3.03081 0.372468 -4.02788 0.789458 -0.401667 -0.460124
38 1 10.1092 10.2499 1.46979 0.647054 3.02786 -2.05404 0.489438 -4.07132 -1.15007 -0.756629 -0.0120605
39 1 11.3428 8.78317 -0.0309047 2.80774 -0.622395 -1.00191 0.222858 -4.10024 0.916391 0.0691459 0.269207
40 1 12.8549 10.1114 1.48671 -1.75728 -0.634733 -0.267602 0.229192 -4.10691 -0.296929 0.194367 -0.816048
139 1 11.4119 8.69776 2.87868 -0.425376 2.4171 -0.0430739 0.105608 -4.09895 0.0673573 0.360035 -0.0773949
149 1 11.4267 11.5446 2.87954 -0.904464 -0.906018 0.248794 0.170318 -4.07587 0.181634 0.11894 -0.301455
49 1 11.351 11.4979 -0.00321086 -3.94296 -1.72452 -3.57845 0.141466 -4.05029 0.750845 0.374157 -0.726071
42 1 1.60077 12.9976 1.27684 -0.841826 -0.173751 0.753914 0.411265 -4.08628 -0.941934 0.595087 0.320492
44 1 4.30049 12.9516 1.26211 -1.17519 0.372824 -0.13007 0.103731 -4.15951 0.621213 0.00951046 0.507076
52 1 1.58776 15.7356 1.4995 -0.585983 1.26946 1.71295 0.638731 -4.01751 -0.950015 -0.493317 -0.95585
54 1 4.38463 15.6552 1.35476 0.269637 0.959657 1.9614 0.261184 -4.08869 -0.497616 0.482009 -0.444504
153 1 2.9946 14.2978 2.80739 -3.03426 -0.361765 3.65674 0.163125 -4.01246 -0.440882 0.0875712 0.452796
46 1 7.13899 12.8477 1.3309 -0.042375 -0.703018 -2.37022 0.219358 -4.04674 -0.216029 0.630017 -0.0300882
56 1 7.08452 15.7726 1.27804 0.19616 0.505449 -1.21975 0.237163 -4.08778 0.0166254 -0.273698 -0.0363358
155 1 5.76502 14.3443 2.75219 -0.699273 2.50818 -2.71856 0.102107 -4.10897 -0.0892899 -0.384778 0.238402
157 1 8.53251 14.4644 2.83375 1.77519 1.9958 -4.01974 4.89556 -4.11536 0.214695 -0.633276 0.0491864
57 1 8.49816 14.3386 0.0548179 5.27468 2.46447 0.151665 0.4616 -4.00949 0.0943779 -0.0430762 -1.08536
51 1 14.0057 14.3518 -0.0811711 5.08997 3.62125 -2.07853 4.59478 -4.01616 1.27395 -0.247186 -0.272721
151 1 14.2009 14.4155 2.81554 -4.71089 2.01634 -0.85659 0.1172 -4.02765 -0.151616 -0.532977 -0.311385
48 1 9.93985 13.0563 1.38007 2.86016 2.34417 0.701272 0.265464 -4.09552 0.428018 -0.821725 0.0494759
50 1 12.7181 12.9904 1.37745 0.559624 -1.36974 -0.820506 0.171181 -4.09657 0.0881387 -0.114215 0.135153
58 1 9.99316 15.7186 1.36257 -3.3381 -1.51398 5.38263 0.163248 -4.08958 0.142573 0.546293 0.0213777
60 1 12.7967 15.7437 1.36803 1.53771 1.90327 -4.70531 0.109489 -4.07988 -0.611721 -0.00759878 0.434926
159 1 11.3491 14.3264 2.8641 -0.265735 -1.65506 -3.98071 0.149004 -4.08676 0.456856 0.340482 -0.473642
62 1 1.43944 18.5161 1.40248 0.272627 0.831543 -0.200207 0.114671 -4.04932 0.096864 0.314871 -0.439714
64 1 4.38586 18.6552 1.40652 1.24428 1.0664 2.86252 4.95831 -4.03506 -0.46729 -1.09911 -0.174407
163 1 2.94245 17.1558 2.7058 0.341627 2.40032 0.506019 0.369985 -4.04279 0.523496 0.508346 0.236266
171 1 0.141802 19.9783 2.90014 -0.0590841 -1.37942 4.27312 0.162277 -4.13425 -0.373123 -0.334339 -0.639251
173 1 2.89555 19.9823 2.78612 0.785649 -1.23368 2.3689 0.141987 -4.12894 -0.318645 -0.2136 0.435856
66 1 7.24355 18.6165 1.40576 2.75597 -4.35103 0.905848 0.355549 -4.18004 -0.347954 -0.0789993 0.096869
67 1 8.57677 17.1461 -0.0582352 -4.30079 -3.56988 1.31798 0.0495108 -4.15484 0.0591591 -0.108963 -0.297366
165 1 5.78304 17.093 2.74346 1.97311 1.99329 -0.167527 0.232954 -4.0618 -0.0745955 0.108526 0.40013
167 1 8.56005 17.078 2.6921 1.63712 1.01306 -0.622391 0.5204 -4.08365 0.1646 -0.274854 0.605609
175 1 5.70632 20.007 2.8111 -3.42076 -2.85137 2.01629 0.130217 -4.07204 0.845161 0.466887 -0.0193798
177 1 8.58858 20.043 3.00895 -1.05917 0.80188 -0.731301 0.906635 -3.99898 -0.550751 -0.787954 -1.37248
75 1 5.71713 19.9361 -0.0724873 -4.53949 -0.9021 2.29786 0.124047 -4.08512 -0.0105593 -0.0326551 -0.623166
65 1 5.67248 17.193 -0.0357913 -1.31158 -3.63153 -0.620776 0.322257 -4.1211 0.458906 -0.189828 -0.262768
161 1 14.1852 17.2046 2.90518 -8.06951 -0.86164 0.0732044 0.203967 -4.14472 -0.0992543 -0.215107 -0.578115
68 1 9.83757 18.5862 1.43113 1.01621 0.95189 3.77626 0.492133 -4.1292 0.637473 0.391923 -0.366622
70 1 12.7582 18.5098 1.39219 -2.75978 -0.241021 0.901339 0.153162 -4.02959 0.603474 0.625574 -0.264108
169 1 11.4357 17.1907 2.80094 -0.050047 0.778513 1.36961 0.107099 -4.0846 -0.67717 -0.161616 0.534345
179 1 11.4548 19.9395 2.88316 0.478562 4.61523 -0.247094 0.240865 -4.10845 -0.261423 0.170727 -0.479587
69 1 11.3235 17.1806 0.0202031 2.51938 -0.439877 2.89062 0.201179 -4.10326 0.376191 -0.274454 -0.623061
71 1 14.189 20.001 0.0266175 -3.02828 1.71166 0.793185 0.288206 -3.97636 0.0164779 -0.598816 -0.553829
61 1 14.2026 17.0274 -0.0121755 -2.79754 0.110739 5.17862 0.282108 -4.04106 0.0546344 0.14533 -0.336572
72 1 1.54936 21.3951 1.31263 2.3338 -3.4761 -2.56089 0.168737 -4.14672 -0.173005 -0.399643 0.0579685
74 1 4.24289 21.3195 1.43727 -0.775897 2.76848 -0.309503 0.343945 -4.1675 0.676063 0.398786 -0.508952
82 1 1.5098 24.075 1.24294 -0.197856 1.54937 -4.05427 0.279659 -4.13286 -0.317499 0.552158 0.275014
84 1 4.24694 24.1216 1.38373 1.75243 2.83472 -4.12876 0.381376 -4.02227 1.04785 0.608618 -0.427941
181 1 0.128659 22.763 2.75149 -3.03311 -1.67311 -0.629939 0.0454173 -4.08719 0.0159798 -0.171123 -0.0160761
183 1 2.89382 22.7594 2.71076 0.572942 -1.11899 -0.365379 0.145 -4.11839 0.129689 0.463497 1.04258
76 1 7.14056 21.2635 1.35857 -0.691281 0.193514 1.05787 0.358918 -4.0185 0.279492 0.830491 -0.172359
86 1 7.25436 24.2668 1.36109 -2.43118 3.29649 -1.15762 0.39443 -3.97152 -0.53113 -0.20062 -0.461139
185 1 5.72509 22.8979 2.71562 3.67767 -2.14848 -3.35625 0.458633 -4.09832 0.700066 -1.16249 0.359865
187 1 8.47118 22.692 2.87996 -0.732136 -0.532565 -1.73565 0.55452 -4.09614 0.256931 -0.343726 -1.11679
78 1 9.92402 21.3232 1.30535 -2.14879 -1.2859 1.20999 0.207516 -4.1029 -0.091512 0.034796 1.04349
80 1 12.7264 21.3466 1.37723 -2.02506 0.894117 1.33119 0.0627553 -4.04788 0.8469 -0.223303 -0.348712
88 1 9.99398 24.1702 1.40018 -1.34963 2.3224 -3.76156 0.189324 -4.12759 -0.121098 0.0352803 0.0488103
90 1 12.8226 24.1983 1.27363 -3.32555 -1.34099 0.789537 0.173112 -4.07618 -0.57584 0.202479 0.933848
189 1 11.404 22.6532 2.73416 1.1462 2.87937 3.03823 0.279821 -4.01081 -0.142534 0.955178 0.175289
92 1 1.49183 27.0716 1.34833 -1.55268 0.823337 -0.21304 0.0677898 -4.08323 -0.285334 -0.608946 0.0878919
93 1 2.95679 25.6072 -0.0627585 -2.98218 -1.24306 2.03838 0.158535 -4.11557 -0.254986 0.057972 -0.516874
94 1 4.31233 27.0701 1.49973 -2.42482 -0.468398 -1.32983 0.619803 -4.01811 -0.265979 0.323193 -0.866185
193 1 2.87926 25.4829 2.72494 -1.0862 0.475835 1.41936 0.397158 -4.03491 -0.033726 1.03329 -0.0211227
5 1 5.72241 28.2956 -0.0043478 2.69086 -0.906142 0.0342517 0.552923 -4.07263 -0.051069 0.679134 -0.81475
107 1 8.62684 28.3911 2.82766 1.62718 -2.83475 -3.52836 0.286884 -4.11516 -0.56352 1.24092 -0.562657
96 1 7.19496 27.0059 1.35046 3.8854 -2.09663 -3.2721 0.0362564 -4.11299 -0.551268 0.150737 0.602301
195 1 5.7699 25.6353 2.73934 -1.7019 -1.17403 1.74296 0.120242 -4.08869 0.147621 0.0773246 0.432447
197 1 8.65402 25.6862 2.78992 -0.592902 -0.620959 0.00800132 0.311396 -4.11125 -0.340057 -0.490745 0.523626
7 1 8.51249 28.4072 0.0158576 0.305773 -1.36188 3.04787 0.314001 -4.05391 -0.281085 0.382515 -0.677207
191 1 14.1954 25.5315 2.74817 -0.0885336 -4.4938 -0.48509 0.205822 -4.00495 0.316047 0.00274055 -0.182854
98 1 9.85719 27.0277 1.30806 2.60699 4.64685 0.62246 0.382999 -4.14568 0.821378 0.0589596 0.078775
100 1 12.8111 27.1397 1.36064 0.688756 2.41483 -3.36628 0.108967 -4.08151 0.119729 -0.481259 0.236211
199 1 11.3947 25.7747 2.79143 -1.77748 -0.753815 0.440887 0.575283 -4.03995 0.447539 -0.895322 -0.013761
99 1 11.3966 25.6653 -0.0218609 -3.11862 -0.640777 0.494149 0.134559 -4.09048 -0.0690431 -0.196879 0.244324
102 1 1.43258 1.58866 4.25522 7.38627 -3.29026 1.48818 0.290412 -4.0907 0.567798 -0.0251618 -0.130426
104 1 4.40471 1.70471 4.16926 -2.62904 -0.431866 -2.50035 0.221741 -4.1039 -1.03911 0.183414 -0.345597
202 1 1.64591 1.56967 6.99409 2.02744 3.5456 -1.59179 0.58228 -4.06155 -1.00698 1.25706 0.589597
203 1 2.94499 0.259696 5.62608 -1.3304 -3.48688 0.0854903 0.125806 -4.10862 0.639619 -0.176598 -0.647604
204 1 4.18458 1.68524 7.07142 -0.935437 1.48785 2.63114 4.25071 -4.0778 1.72328 -0.865958 -0.578597
213 1 2.88677 3.08084 5.59345 -2.28947 -0.845795 -1.07431 0.335042 -4.12578 -0.0406193 -0.307066 0.458724
106 1 7.15632 1.63052 4.15491 0.736671 -1.16949 0.0239501 0.224143 -4.14596 0.673163 0.760854 0.933742
205 1 5.64874 0.299036 5.49803 2.33469 0.995414 0.291621 0.531952 -4.01453 1.1743 -0.83252 1.70942
206 1 7.2548 1.68985 7.03474 -1.46106 -1.55409 1.7364 0.342506 -4.04323 -0.544812 -0.752129 -0.0517422
207 1 8.58474 0.236208 5.69829 1.31666 3.04051 1.49325 0.139306 -4.06637 0.648945 0.247161 -0.599258
215 1 5.78167 2.95842 5.74817 -1.49422 -2.50707 3.51511 0.495679 -4.06015 -0.414325 0.3687 -0.392151
217 1 8.60442 3.0921 5.64813 -1.80041 2.92479 -5.24384 0.120059 -4.09314 -0.259283 -0.192167 0.241352
201 1 14.2143 0.277593 5.70175 -0.76465 1.66164 -3.30675 0.305833 -4.1152 -0.418209 0.0126004 -0.0243183
211 1 14.1953 3.09372 5.75303 0.131749 -3.47244 0.658656 0.245835 -4.10211 -0.108964 -0.469635 -0.593984
108 1 9.98023 1.81548 4.27576 1.78008 -0.0382443 0.481447 0.56189 -4.01825 0.459915 -1.13235 0.0793023
110 1 12.7567 1.63776 4.19012 0.143622 0.261967 0.471904 0.15494 -4.01219 0.0176847 0.184763 0.279121
208 1 9.93587 1.5992 7.11933 -2.11946 3.54369 -4.60115 0.124087 -4.18855 0.32912 0.240881 -0.395364
210 1 12.7168 1.62492 7.14624 1.93469 -2.84729 3.21644 0.349356 -4.05494 0.198099 0.196753 -0.581852
219 1 11.4042 3.08595 5.6717 2.96876 -3.6 -0.306264 0.0647612 -4.05161 0.166333 -0.346738 0.233192
112 1 1.47335 4.44722 4.33468 -2.08488 5.53109 1.88305 0.222075 -4.03561 0.225042 0.663234 -0.417599
114 1 4.45714 4.53943 4.34646 0.408107 -1.46821 1.68028 0.421217 -4.10013 -0.264538 -0.412714 -0.372349
122 1 1.5387 7.19477 4.3035 -2.178 2.10286 -1.52883 0.262954 -4.00861 -0.457531 0.0105711 -0.420684
124 1 4.30599 7.3213 4.28198 -1.70609 -0.894295 0.386355 0.155441 -3.9938 -0.160082 0.265319 0.156477
212 1 1.5107 4.56417 7.12519 1.71349 1.1107 -0.37813 0.377218 -4.11117 -0.141082 -0.746232 -0.0526984
214 1 4.35594 4.34938 7.14238 -3.60792 0.888428 1.10906 4.65091 -4.11032 0.186152 0.634638 -0.33409
222 1 1.54559 7.23945 7.10483 2.60978 -1.28947 -2.65909 0.154508 -4.12135 -0.221755 -0.0641982 -0.266623
223 1 3.00176 5.86832 5.70916 -2.9209 -3.41332 -1.19244 0.119274 -4.12262 -0.372194 -0.145474 0.241906
224 1 4.45542 7.31972 7.13889 2.28078 -2.16034 3.83898 0.287961 -4.06065 -0.963728 0.118492 -0.614316
116 1 7.08446 4.43511 4.28238 -0.717838 -0.661302 1.69127 0.353241 -4.11649 0.501961 0.164231 -0.25462
126 1 7.33953 7.39572 4.26243 1.37971 -3.46356 0.697126 0.481078 -4.01179 -0.835567 -0.606664 -0.540776
216 1 7.15048 4.45322 6.99543 0.663868 1.20315 1.59813 0.314751 -4.14836 -0.151813 0.453723 0.429095
225 1 5.7941 6.05956 5.62847 0.299468 -1.75276 -1.18853 0.610647 -4.0605 0.11993 -0.506026 0.240089
226 1 7.22143 7.27669 7.10747 -1.92098 2.73055 -2.00716 0.109067 -4.15237 -0.123101 0.445459 -0.0385275
227 1 8.61587 5.8789 5.6347 -0.532809 -0.371899 0.126652 0.125802 -4.05575 -0.409887 -0.177486 0.0188632
221 1 14.1524 5.86373 5.72249 0.796103 -1.93786 -0.0692733 0.12205 -4.08289 -0.112226 -0.0379613 -0.307441
118 1 10.0291 4.4796 4.2473 -2.00022 0.251406 -1.34662 0.097151 -4.14138 -0.00213414 0.254276 -0.576064
120 1 12.7727 4.51546 4.18679 -2.93314 -0.0391201 0.674702 0.104763 -4.13106 0.256147 0.0501518 0.271531
128 1 10.0124 7.32217 4.20119 -2.7644 2.28321 3.1472 0.119318 -4.12197 -0.574955 0.160143 0.414467
130 1 12.7448 7.26336 4.20679 -1.8326 -3.86476 -3.53257 0.153185 -4.12548 0.473364 0.012068 -0.0275355
218 1 9.92391 4.44006 7.10196 2.54663 2.02038 1.45237 0.087001 -4.13446 0.393075 0.130907 0.169213
220 1 12.7806 4.44772 7.09419 -0.879614 -1.25736 1.20844 0.0614577 -4.02291 -0.270846 -0.396857 0.543943
228 1 9.92162 7.27115 7.18228 0.0778168 -0.255412 1.79302 0.248957 -4.1092 0.0186871 -0.166466 -0.102676
229 1 11.2652 5.91426 5.70335 0.58398 1.74186 -1.1864 0.29565 -4.10657 0.719413 -0.0944069 -0.0388934
230 1 12.8446 7.35538 7.02332 2.31232 0.678649 1.21522 0.269378 -4.07668 -0.646217 -1.18697 0.108265
132 1 1.49806 10.2454 4.16915 0.926583 1.77752 2.20689 0.196578 -4.04453 0.0317587 -0.757483 0.0722788
134 1 4.33421 10.2257 4.29897 -1.95039 -2.01599 -1.69927 0.268998 -4.05392 -0.0980648 -0.584072 -0.317716
232 1 1.56015 10.1641 7.12042 2.12226 0.0705619 -0.681687 0.202274 -4.11861 -0.473253 -0.300432 -0.288013
233 1 2.86938 8.7146 5.72494 -0.683116 0.194601 5.31636 0.142347 -4.08068 0.208004 0.257945 -0.600217
234 1 4.30212 10.2221 7.1 -0.621179 0.157015 -0.123602 5.1111 -4.11193 0.477672 -0.420793 0.381047
241 1 0.149986 11.5192 5.62981 -2.41095 0.904273 -0.0212207 0.0896165 -4.08336 0.0450716 0.11834 0.180891
243 1 2.87755 11.525 5.57982 -0.234391 0.744033 0.670144 0.22969 -4.05222 -0.323625 -0.0814734 0.376733
136 1 7.34978 10.1327 4.27753 0.629619 0.98562 1.20116 0.358251 -4.10179 -0.863082 0.389601 -0.414924
235 1 5.87066 8.81598 5.60252 0.465343 -1.43871 1.4062 0.363346 -4.09682 -0.678549 -0.370792 0.434815
236 1 7.13391 10.1574 7.12616 2.36863 -0.429749 -0.449581 0.254312 -4.13466 -0.114525 0.160875 0.444863
237 1 8.63235 8.75913 5.81391 2.56455 0.935182 0.542097 0.337191 -4.13855 -0.0187838 -0.215255 -0.571584
245 1 5.87987 11.5851 5.6638 0.240801 -0.541356 -0.243051 0.422024 -4.08302 -0.407546 -0.244799 -0.325687
247 1 8.6244 11.498 5.76739 0.432483 -3.51449 2.45946 0.186693 -4.14796 0.0248677 0.711761 -0.0249471
231 1 14.2058 8.74973 5.62884 -0.187028 1.52542 1.17023 0.0847572 -4.14626 0.467434 -0.0426774 0.150362
138 1 9.92992 10.142 4.21396 -1.64946 -2.47072 4.24093 0.25755 -4.15901 0.629628 -0.0355139 0.292688
140 1 12.8378 10.2224 4.22172 -3.06779 0.590986 0.953237 0.185684 -4.15074 -0.48592 -0.0268435 0.45732
238 1 10.0462 10.0877 7.1255 4.00462 1.03455 -0.403308 0.137173 -4.05381 0.445067 0.133909 0.337743
239 1 11.364 8.67474 5.63584 1.07823 -1.10089 5.00007 0.094887 -4.11918 0.229394 0.232885 -0.304693
240 1 12.788 10.0949 6.95685 0.473313 1.12475 -2.36237 0.349644 -4.02337 0.296815 0.581903 1.43053
249 1 11.3994 11.5636 5.75715 0.00818624 4.09037 -1.73351 0.23203 -4.10034 -0.448336 -0.228992 0.0368949
142 1 1.52181 13.0509 4.31937 -1.28477 -4.17543 2.9049 0.33327 -4.1516 0.0212163 -0.294246 -0.591884
144 1 4.29805 12.8216 4.15929 1.81958 -2.20134 0.0142737 0.394264 -4.08993 0.704939 1.1414 0.485459
152 1 1.51339 15.8576 4.29634 -0.669006 2.84052 -0.820189 5.03089 -4.18342 0.37343 -0.865527 -0.31213
154 1 4.25725 15.7179 4.21422 2.46855 -1.35996 -1.82568 0.302369 -4.08368 0.811033 0.167975 -0.296216
242 1 1.53992 12.9165 7.07057 0.280113 3.4737 -1.1283 0.11326 -4.17327 0.387028 -0.0361054 0.518985
244 1 4.24982 12.7782 7.0962 2.14938 -0.0921022 -0.749942 5.01196 -4.11054 0.212489 0.538115 -0.0579326
251 1 0.128475 14.4623 5.72473 2.68999 -0.1114 0.508103 0.217319 -4.08781 -0.49667 -0.3678 -0.179186
252 1 1.63436 15.7834 6.98623 -3.12021 0.366244 0.726554 0.437214 -4.03444 -0.182083 -0.0938493 0.533095
253 1 3.02926 14.3678 5.70043 0.643288 -2.70259 -2.00417 0.345863 -4.04373 -0.122224 -0.375873 -0.386223
254 1 4.32401 15.7314 7.1864 -3.29084 -1.84392 -1.68306 0.256708 -4.04297 -0.395665 0.52077 -0.377085
146 1 7.13468 12.9886 4.22806 1.04428 0.1527 -2.62964 0.130709 -3.95839 0.660886 -0.582865 0.189
156 1 7.1141 15.8395 4.25398 -5.45427 -4.00032 2.42238 0.283768 -4.05961 0.0641107 0.0675832 -0.229962
246 1 7.17912 12.9922 7.13918 0.991656 -1.68864 -0.448699 0.132995 -4.04664 0.716209 -0.0554666 -0.0380155
255 1 5.79332 14.3612 5.62063 0.949383 2.2935 -3.25327 0.172443 -4.14293 -0.463605 -0.179908 0.702382
256 1 7.19239 15.8423 7.00706 -0.861153 0.781607 -0.146585 0.358024 -4.05762 0.321912 -0.839538 0.18513
257 1 8.60857 14.4287 5.71628 -2.00567 3.54744 2.76289 0.0711874 -4.10278 -0.242264 -0.641524 -0.606379
148 1 10.0789 12.8625 4.32177 2.53119 -0.204599 1.59625 0.29637 -4.05058 -0.719218 0.875076 0.0205094
150 1 12.8144 12.9078 4.28916 0.842405 -1.04171 -0.584461 0.152401 -4.1487 0.523303 0.351002 -0.0493559
158 1 10.0599 15.8093 4.30537 1.95172 -4.28031 -2.67566 0.244725 -4.06784 0.093455 -0.0988311 0.0570467
160 1 12.7974 15.8078 4.20964 2.05154 2.79304 -0.0709358 0.179147 -4.10381 -0.209414 0.0365253 0.804035
248 1 10.001 13.0598 7.14397 1.15591 3.93167 -3.97146 0.32436 -4.04813 0.470223 0.0978858 0.166826
250 1 12.9049 12.9601 7.0506 1.45982 -1.9964 -1.75047 0.245429 -4.10835 -0.174558 -0.0729379 0.00766036
258 1 10.0849 15.781 7.10736 3.15439 -2.57917 -3.22034 0.182396 -4.13225 -0.726936 -0.309315 0.470399
259 1 11.5154 14.2983 5.66231 2.36546 0.76793 -0.871017 0.264692 -4.10373 -0.491404 0.905414 0.283112
260 1 12.7221 15.7462 7.13403 1.07372 0.97037 -2.70378 0.522665 -4.02201 0.790599 -0.349713 0.534941
162 1 1.61205 18.4318 4.24033 0.103087 0.473685 0.329909 0.466343 -4.09482 -0.429708 0.430734 -0.0187496
164 1 4.41893 18.6151 4.13118 -0.211573 3.22505 -5.20284 0.327501 -4.06373 -0.790714 -1.08089 0.327005
262 1 1.64124 18.6991 7.08535 -1.57751 0.894061 -4.43727 0.341292 -4.12783 -0.950096 -0.457828 -0.185829
263 1 3.02324 17.1738 5.64954 -2.37006 -0.133771 0.32695 0.252603 -4.10935 0.174939 0.198565 0.152987
264 1 4.25569 18.5351 7.22357 2.99979 1.41468 -0.253245 0.460699 -4.06288 1.10499 0.220796 -0.410403
271 1 0.239882 19.931 5.56183 -2.9132 -1.24747 -1.34561 0.57231 -4.06555 -0.238115 0.0318833 0.267697
273 1 3.06119 20.0027 5.66493 0.40391 -0.0741893 3.19324 0.350422 -4.11991 -0.117678 0.591566 -0.392036
166 1 7.16241 18.5363 4.22283 0.698547 0.150344 -2.49931 0.162341 -4.18375 0.167785 -0.194925 -0.0406747
265 1 5.71847 17.1429 5.77898 -1.6126 -0.82668 -3.54668 0.397981 -4.11232 -0.399631 0.52737 -0.599993
266 1 7.25348 18.553 7.00825 1.95445 3.37989 -0.145865 0.523656 -4.03705 -0.536166 0.269509 0.469049
267 1 8.63962 17.1234 5.5935 1.62128 1.24999 -1.44411 0.251291 -4.06506 -0.30625 0.135517 0.6603
275 1 5.66392 19.9514 5.67093 0.0670137 -1.38317 -3.87798 0.293148 -4.10695 0.198515 0.274168 0.582448
277 1 8.52362 20.0544 5.66071 0.898333 -0.0775842 -0.479706 0.247661 -4.13547 0.796328 0.148637 0.22741
261 1 14.1769 17.1487 5.73794 3.22524 -0.724689 1.23685 0.347407 -4.13268 0.0654834 0.181856 0.0434257
168 1 9.9888 18.5753 4.26365 -3.61858 0.233632 -1.83299 0.189556 -4.08534 -0.308589 -0.683249 -0.230577
170 1 12.8038 18.6463 4.36465 0.900172 4.64776 -2.52583 0.309579 -4.09876 -0.21049 -0.827503 -0.446573
268 1 9.90461 18.5053 7.19929 4.57801 -0.241298 0.328247 0.286321 -4.05972 0.38017 0.4674 -0.753622
269 1 11.4148 17.1891 5.83885 1.22914 3.37173 -1.05524 0.361924 -4.06302 0.687988 0.3572 -1.04249
270 1 12.909 18.7314 7.09037 -1.75346 -1.91228 -0.862528 0.521395 -4.08205 -0.727117 -0.145749 0.627269
279 1 11.3598 20.0486 5.63987 2.0114 -4.45816 0.994583 0.249493 -4.06156 -0.175074 -0.399874 0.605247
172 1 1.47279 21.4257 4.26661 2.33301 -0.225112 2.95214 0.263729 -4.10266 1.06195 0.234095 -0.284115
174 1 4.32705 21.4567 4.12065 -1.27528 -0.710527 -1.51037 0.257226 -4.10161 0.174713 0.281292 0.230043
182 1 1.5749 24.1646 4.22128 -0.784188 -3.79054 -2.16947 0.0641234 -4.15964 -0.397293 0.598154 0.0878803
184 1 4.3073 24.238 4.18064 -0.587332 0.565944 -1.32797 0.141699 -4.08911 0.47447 -0.695522 -0.111856
272 1 1.50093 21.4332 7.0138 -1.3891 0.701157 2.48604 0.34938 -4.13202 0.336017 -0.749798 0.941951
274 1 4.4257 21.4489 7.16774 2.59471 -0.91757 -0.537123 0.25111 -4.03817 -0.193947 -0.0519521 -0.630449
281 1 0.183488 22.7914 5.72184 -2.74019 0.616667 0.622568 0.14371 -4.01065 -0.31665 0.775463 -0.613015
282 1 1.52472 24.1909 7.17529 -1.23117 0.365724 -0.651941 0.154307 -4.1146 0.577288 -0.236979 -1.06987
283 1 2.92311 22.8102 5.73876 1.18139 2.06881 4.32688 0.161939 -4.05802 0.518534 0.282111 -0.0631219
284 1 4.42474 24.2671 7.14442 -2.88227 1.45219 3.65201 0.155671 -4.04894 -0.120671 -0.232816 -0.286105
176 1 7.06694 21.3141 4.28632 -3.95137 -1.5893 -1.01736 0.384258 -4.06497 0.497002 -0.132595 -0.676532
186 1 7.17879 24.1447 4.1334 2.78581 2.06017 1.88695 0.183071 -4.01094 -0.0179925 0.830896 0.422054
276 1 7.10716 21.4372 7.15733 2.60993 -1.18025 -2.38511 0.232493 -4.07172 0.228706 0.1042 -0.443995
285 1 5.85589 22.7635 5.54249 1.31531 1.02106 -0.50399 0.513795 -4.03689 -1.57367 1.1746 1.453
286 1 7.16944 24.2408 7.13867 1.08031 -1.08147 0.839848 0.260657 -4.06348 -0.235171 -0.573727 -0.79941
287 1 8.6565 22.7436 5.58613 2.42 3.87829 -0.705154 0.321187 -4.2299 -0.567917 0.724307 0.82786
178 1 9.99102 21.4199 4.18513 -1.13098 -1.50552 3.15931 0.229789 -4.07523 1.08595 0.152026 0.206058
180 1 12.8404 21.4228 4.31088 -0.471497 0.0061306 0.269058 0.276799 -4.2075 -0.247066 -0.00422635 -0.231547
188 1 10.0407 24.0693 4.08464 -1.30348 -2.27273 0.479064 0.781588 -3.9866 -0.0478974 1.28294 0.0924454
190 1 12.925 24.1389 4.19488 -1.55903 -2.12372 1.13416 0.397039 -4.03379 -1.07125 0.260565 -0.00263565
278 1 9.94955 21.4304 7.20578 1.38589 -0.978514 1.96516 0.300581 -4.00317 0.159423 -0.66087 -0.907422
280 1 12.8739 21.3633 7.02714 1.61778 1.13426 1.57654 0.279527 -4.17189 0.136585 0.177908 0.189107
288 1 10.0194 24.1956 7.18732 2.68269 2.22443 1.78439 0.360848 -4.02375 -0.752658 0.1978 -0.137665
289 1 11.3072 22.8471 5.6658 -3.96248 4.07387 -0.259648 0.480901 -4.1248 0.242023 -0.440789 0.11207
290 1 12.8777 24.1232 7.08025 1.06046 -1.98762 3.24564 0.233575 -4.12622 -0.28503 0.565914 0.352921
192 1 1.54582 26.9795 4.25239 0.832332 -0.820942 0.130328 0.142204 -4.1924 0.0257493 0.207308 -0.259923
194 1 4.33343 27.1078 4.19808 -1.61671 -3.20912 1.28134 0.246942 -4.08932 -0.317585 -0.603824 -0.27827
291 1 0.123486 25.6243 5.77711 -1.91934 -0.395923 -0.219087 0.353425 -4.02009 -0.108574 -0.589327 -0.807965
292 1 1.58125 27.1181 7.00011 0.521729 -0.104332 -0.21211 0.249312 -4.16366 0.0890147 -0.91725 0.50482
293 1 3.0799 25.6086 5.63931 2.80973 1.17343 -0.298043 0.377121 -4.02747 -1.05301 -0.324348 0.254925
294 1 4.2495 27.1204 7.07318 -1.17778 2.9951 1.58236 0.24838 -4.08199 0.752286 -0.327908 -0.11755
196 1 7.3038 27.0489 4.33228 3.37805 -2.98627 4.17109 0.550863 -4.03995 -1.2456 0.0512661 -1.10714
295 1 5.73558 25.636 5.61955 2.43808 0.681994 -1.51506 0.149766 -4.13374 0.354413 0.236512 0.424045
296 1 7.17419 27.0665 6.99048 0.309675 6.50899 -1.89168 0.232881 -3.99001 0.146675 0.681238 -0.00024059
297 1 8.56397 25.5256 5.66357 -0.134748 1.31643 -3.31811 0.335854 -4.14503 1.0807 0.39094 -0.403573
209 1 11.3537 28.3011 5.72704 -0.393176 -1.47754 0.78913 0.764702 -4.0068 0.786436 0.941682 -1.28279
198 1 9.95313 27.0869 4.13936 0.689763 -0.698924 -1.31982 0.283714 -3.92045 0.852059 -0.509836 1.66662
200 1 13.0099 27.0067 4.19042 5.30296 -0.270392 0.651806 0.920782 -4.01986 -0.634372 0.311758 0.198163
298 1 9.9521 27.1594 7.14694 1.28797 -2.74568 -4.13594 0.322961 -4.06352 -0.757725 -1.0171 0.454947
299 1 11.357 25.6421 5.70389 0.613569 6.18239 1.53807 0.316992 -4.06193 0.29734 0.125427 -0.351827
300 1 12.9347 27.0657 7.1396 -0.577292 -1.28953 -3.83829 0.291688 -4.09784 -0.74155 -0.0570619 -0.00460318
301 1 0.190771 0.330155 8.41134 0.5675 -0.168496 -2.46061 4.6393 -4.13637 0.153419 -0.3746 0.35875
302 1 1.52998 1.64637 10.0927 -1.42736 -3.15682 0.972455 0.267282 -4.09183 0.409189 -0.0678367 -0.262117
303 1 2.87995 0.257353 8.5572 0.341516 -0.0404191 -2.60214 0.17814 -4.11777 -0.144997 -0.510094 0.109039
304 1 4.29008 1.6221 9.94225 -4.04083 -0.468429 4.02966 0.147143 -4.06847 -0.104538 0.958108 0.424385
311 1 0.149724 2.85167 8.54933 -1.74976 0.28104 0.763369 4.91798 -4.05821 -0.274655 1.51469 -0.47517
313 1 2.89377 2.99568 8.4419 0.148637 -0.416692 -0.495992 0.325034 -4.02183 -0.5563 0.669703 0.919103
403 1 2.9679 0.297361 11.45 0.394335 0.406084 2.23505 0.171262 -4.10201 -0.0110205 -0.340707 -0.57825
411 1 0.156785 3.04543 11.407 0.660313 -0.658618 -1.38298 0.13213 -4.12996 -0.459627 0.481416 -0.257814
413 1 2.87494 3.0559 11.5115 -3.05234 -3.9865 -0.430171 0.310289 -4.14351 0.387026 0.202186 -0.496061
305 1 5.63949 0.272746 8.55311 -2.6762 0.601797 -1.53878 0.26866 -4.03892 0.909039 0.442589 -0.439421
306 1 7.16827 1.7968 9.97008 -0.497955 1.38302 -0.554626 0.422022 -3.95386 -0.26762 -1.51864 0.698758
307 1 8.54451 0.339894 8.59518 2.06573 -1.47317 -0.377265 0.305776 -4.11478 -0.12431 -0.824111 0.213868
315 1 5.88369 2.98404 8.47385 0.746495 3.22544 0.384377 0.617722 -4.04903 -1.36428 0.232132 -0.223748
317 1 8.5575 3.091 8.47505 0.877774 1.33708 0.284955 0.0710497 -4.21354 -0.529359 -0.17954 0.336481