ITEM: TIMESTEP
3000
ITEM: NUMBER OF ATOMS
2000
ITEM: BOX BOUNDS pp pp pp
1.0838953229856951e-01 1.4221610467701321e+01
2.1677906459713903e-01 2.8443220935402643e+01
3.4887880358186152e-01 5.6971121196417698e+01
ITEM: ATOMS id type x y z vx vy vz c_csym c_peratom fx fy fz
2 1 1.62332 1.66863 1.77167 -0.282889 -3.25185 -0.636516 0.27692 -4.1138 -0.82511 0.235304 -0.217719
4 1 4.35789 1.61575 1.70293 0.990702 -5.33602 3.45801 0.212002 -4.15509 0.161115 0.153135 0.604223
11 1 0.115605 3.14255 0.394613 0.617832 -0.194419 3.50607 0.195307 -4.07999 0.0720959 -0.199047 -0.17587
101 1 0.126621 0.284403 3.15417 -1.57173 1.46596 2.1275 0.151168 -4.10917 -0.413149 -0.245622 -0.181113
103 1 2.85007 0.270771 3.21094 0.287695 0.367304 -1.8153 0.234897 -4.01364 0.762458 -0.204824 -0.17837
111 1 0.168447 3.08626 3.17937 -2.2925 0.592843 0.179022 0.129281 -4.17083 -0.103344 0.0408245 -0.349052
113 1 2.87763 3.13123 3.23222 -1.71434 2.42111 -1.1208 0.32265 -4.09106 -0.330512 -0.0746984 -0.119928
13 1 2.94284 3.10367 0.366997 -0.0706192 -1.95523 0.774801 0.0707594 -4.05319 -0.494814 0.133108 0.179152
6 1 7.17995 1.58532 1.76523 -1.53139 -1.81767 -2.43971 0.223008 -4.11556 0.0403587 1.07085 -0.0233618
17 1 8.63608 3.25517 0.4148 -1.24355 -0.0988133 -0.860341 0.803221 -4.05985 -0.468731 -1.00907 -0.394378
105 1 5.90739 0.22905 3.18075 0.812795 -1.48127 -4.16198 0.293047 -4.08218 -0.651801 -0.247231 -0.172919
115 1 5.79048 3.13764 3.16671 -0.932742 0.818202 0.0439582 0.178243 -4.04744 -0.193402 -0.533822 0.0198878
117 1 8.60233 3.08029 3.24325 0.475293 0.415756 -1.302 0.153225 -4.07795 -0.456564 0.293796 -0.810069
15 1 5.86915 3.09703 0.403279 -1.1078 -3.23994 -0.243916 0.284659 -4.03632 -0.103338 -0.108231 -0.604966
8 1 9.98472 1.71462 1.65543 1.02028 2.64764 -1.65962 0.356626 -4.06116 -0.778272 0.274925 1.22529
9 1 11.3244 0.287262 0.444462 -0.628437 1.37052 0.162777 0.370462 -4.05119 1.34817 -0.596943 -0.473731
10 1 12.8557 1.68831 1.70344 -0.261261 2.58464 0.684826 0.126631 -4.0471 -0.420562 0.59739 0.304582
109 1 11.3921 0.306018 3.15227 4.17545 -4.26001 3.01885 0.164789 -4.10942 -0.0316959 -0.374689 0.310526
119 1 11.4562 3.11085 3.10077 -0.877516 0.612354 1.13148 0.146076 -4.12036 -0.193346 -0.316395 -0.00814185
12 1 1.52356 4.6359 1.67435 1.18436 1.40208 1.05812 0.544827 -4.06662 0.0750735 -0.562028 0.321013
14 1 4.34915 4.42365 1.86018 -0.761965 1.11821 -1.53086 0.265884 -4.10606 -0.321824 0.682377 -0.360084
22 1 1.54026 7.32431 1.70032 0.529166 1.27637 -0.648244 0.228178 -4.06093 0.127884 -0.456427 0.899935
23 1 3.01689 5.92797 0.375087 4.21453 0.286138 -0.65637 0.219852 -4.06314 -0.275492 -0.328574 -0.0185891
24 1 4.35552 7.36387 1.7669 0.718611 1.41969 0.425215 0.10311 -4.03695 -0.159071 0.239897 0.101638
121 1 0.132435 5.82793 3.17276 -2.35864 3.10392 -0.471262 0.179851 -4.04649 0.114538 0.560438 0.268586
123 1 3.01618 5.86763 3.26311 1.00139 1.8653 -1.24788 0.248676 -4.15141 -0.570381 -0.179834 -0.40322
16 1 7.14135 4.5226 1.84007 0.603539 0.154603 0.133915 0.146397 -4.06753 0.296687 -0.578394 -0.801283
25 1 5.70759 5.92495 0.460748 -0.827089 1.1553 2.35682 0.303264 -4.14928 -0.638818 -0.953375 -0.799033
26 1 7.1412 7.16975 1.7199 -0.0337704 2.62343 0.778117 0.515598 -3.93236 0.150587 1.82661 1.15394
125 1 5.74127 5.95799 3.21386 -0.136011 -2.75282 -0.154075 0.137288 -4.2049 0.298613 0.356893 0.136965
127 1 8.57446 5.88387 3.0854 -1.51658 -3.67076 0.00771245 0.338046 -4.1075 0.589836 0.0271408 1.202
18 1 10.0587 4.47472 1.7683 2.01504 1.15568 0.108705 0.205633 -4.05589 0.00174424 0.273266 0.328143
20 1 12.7939 4.54238 1.73638 -0.022531 3.00342 -1.17168 0.0568027 -4.13189 0.0178264 -0.0114125 0.101509
28 1 10.1169 7.35391 1.85292 1.08986 -1.21663 1.80841 0.391713 -4.02758 -0.71292 -0.461836 -0.606397
29 1 11.4127 5.98723 0.365815 1.3822 1.47477 -0.555896 0.0531221 -4.13812 -0.499589 -0.370579 -0.261717
30 1 12.8531 7.28188 1.82598 0.362699 -0.519128 0.486825 0.133091 -4.15882 -0.195305 0.279194 -0.128688
129 1 11.3642 5.90889 3.22064 -0.995542 1.01394 2.2528 0.105698 -4.11146 0.0124974 0.0810362 -0.216675
32 1 1.48279 10.1923 1.70271 2.66336 -1.18469 0.933482 0.208142 -4.12345 0.319026 -0.824602 0.418604
34 1 4.32744 10.195 1.70358 -3.42019 -1.92301 1.41173 0.178586 -4.08665 -0.191537 -0.544186 0.521357
43 1 2.92107 11.628 0.370189 2.17426 0.782241 3.50485 0.109674 -4.08967 -0.198573 -1.13055 -0.633228
133 1 2.87707 8.77788 3.20447 -1.44944 0.975575 0.710255 0.0884906 -4.09975 0.148375 -0.465622 0.0913084
141 1 0.146359 11.6297 3.09579 -2.20193 -7.04944 -1.51669 0.286931 -4.11774 -0.124438 0.316738 0.259879
143 1 2.92416 11.521 3.18204 -0.572232 1.1909 1.77002 0.156877 -4.11917 -0.61046 -0.149038 -0.763556
36 1 7.17897 10.1662 1.81184 0.10168 3.47717 0.174941 0.158221 -3.99969 -0.115633 -0.160265 -0.0542102
47 1 8.63625 11.4798 0.447047 -1.46078 2.66256 0.234251 0.268398 -4.07981 -0.427501 0.222096 -0.137997
135 1 5.71447 8.72482 3.27699 -0.880733 0.590278 -0.109653 0.273216 -4.11348 0.365618 0.194742 -0.77253
137 1 8.61908 8.74613 3.12044 -4.19951 1.4167 -2.48788 0.340017 -4.11875 -0.44595 0.0230471 0.0975869
145 1 5.78797 11.4174 3.18451 0.913579 -3.10787 0.676852 0.31308 -4.07719 -0.293001 0.846376 0.184317
147 1 8.63173 11.5707 3.28227 -2.52053 -2.66134 -2.016 0.176944 -4.09496 -0.546293 0.73297 -0.869001
37 1 8.64539 8.6808 0.475451 -0.410704 1.96136 0.795798 0.342305 -4.1493 -0.655415 0.26158 -0.4509
41 1 14.1834 11.5242 0.443311 -1.35835 -5.95404 3.83557 0.228004 -4.06734 -0.36837 0.679251 -0.325151
131 1 14.189 8.78043 3.29688 -1.59748 2.05417 3.03081 0.364828 -4.03664 0.746527 -0.681092 -0.78373
38 1 10.1092 10.2499 1.87701 0.647054 3.02786 -2.05404 0.487896 -4.06583 -0.945519 -1.33908 0.0829293
39 1 11.3428 8.78317 0.39879 2.80774 -0.622395 -1.00191 0.222649 -4.10613 0.690585 -0.354262 0.327659
40 1 12.8549 10.1114 1.89368 -1.75728 -0.634733 -0.267602 0.225155 -4.11301 0.0142424 0.13243 -0.658171
139 1 11.4119 8.69776 3.2648 -0.425376 2.4171 -0.0430739 0.10456 -4.09703 -0.118813 0.252181 -0.421535
149 1 11.4267 11.5446 3.26564 -0.904464 -0.906018 0.248794 0.168674 -4.07394 0.0314837 0.335132 -0.338011
49 1 11.351 11.4979 0.426069 -3.94296 -1.72452 -3.57845 0.140709 -4.05243 0.544703 0.805917 -0.534292
42 1 1.60077 12.9976 1.68695 -0.841826 -0.173751 0.753914 0.407074 -4.0887 -0.979211 0.414885 0.52458
44 1 4.30049 12.9516 1.67244 -1.17519 0.372824 -0.13007 0.102066 -4.16465 0.462374 0.299647 1.06283
52 1 1.58776 15.7356 1.90628 -0.585983 1.26946 1.71295 0.626734 -4.02985 -1.2303 -0.305391 -1.43519
54 1 4.38463 15.6552 1.76371 0.269637 0.959657 1.9614 0.258273 -4.08761 -0.656206 0.272069 -0.0133531
153 1 2.9946 14.2978 3.19458 -3.03426 -0.361765 3.65674 0.162413 -4.01287 -0.43841 0.0612274 0.323808
46 1 7.13899 12.8477 1.7402 -0.042375 -0.703018 -2.37022 0.217889 -4.05244 -0.0419662 0.405153 -0.0284745
56 1 7.08452 15.7726 1.68813 0.19616 0.505449 -1.21975 0.232952 -4.08721 -0.0901091 -0.037739 0.113122
155 1 5.76502 14.3443 3.1402 -0.699273 2.50818 -2.71856 0.101737 -4.1173 0.345175 -0.182344 0.717195
157 1 8.53251 14.4644 3.22054 1.77519 1.9958 -4.01974 4.84867 -4.12231 0.236185 -0.547031 0.361455
57 1 8.49816 14.3386 0.483228 5.27468 2.46447 0.151665 0.450833 -4.01569 0.183253 0.0605405 -0.970405
51 1 14.0057 14.3518 0.349276 5.08997 3.62125 -2.07853 4.54516 -4.02353 1.77101 -0.564403 -0.168708
151 1 14.2009 14.4155 3.2026 -4.71089 2.01634 -0.85659 0.115691 -4.03619 0.153372 -0.539345 -0.0831168
48 1 9.93985 13.0563 1.78863 2.86016 2.34417 0.701272 0.263944 -4.10303 0.575112 -0.837115 0.319357
50 1 12.7181 12.9904 1.78605 0.559624 -1.36974 -0.820506 0.169206 -4.10243 -0.103763 -0.193329 0.175433
58 1 9.99316 15.7186 1.77139 -3.3381 -1.51398 5.38263 0.160868 -4.0912 0.456415 0.213496 -0.211783
60 1 12.7967 15.7437 1.77678 1.53771 1.90327 -4.70531 0.108787 -4.07962 -0.478614 0.102768 0.636539
159 1 11.3491 14.3264 3.25044 -0.265735 -1.65506 -3.98071 0.148155 -4.09073 0.0630886 0.492643 -0.290006
62 1 1.43944 18.5161 1.8107 0.272627 0.831543 -0.200207 0.114267 -4.05472 0.0232454 0.356136 -0.557535
64 1 4.38586 18.6552 1.81468 1.24428 1.0664 2.86252 0.397657 -4.03561 -0.73582 -0.928857 -0.39503
163 1 2.94245 17.1558 3.09451 0.341627 2.40032 0.506019 0.363785 -4.0438 0.953244 0.632324 0.39577
171 1 0.141802 19.9783 3.28594 -0.0590841 -1.37942 4.27312 0.160015 -4.13645 -0.592009 -0.239293 -0.845953
173 1 2.89555 19.9823 3.17362 0.785649 -1.23368 2.3689 0.140792 -4.13335 -0.724091 -0.311741 0.543644
66 1 7.24355 18.6165 1.81394 2.75597 -4.35103 0.905848 0.351724 -4.18673 -0.67756 -0.240041 -0.0132851
67 1 8.57677 17.1461 0.371869 -4.30079 -3.56988 1.31798 0.0494983 -4.15362 -0.371175 -0.086785 0.224138
165 1 5.78304 17.093 3.13161 1.97311 1.99329 -0.167527 0.231108 -4.06529 -0.28815 0.069871 0.327541
167 1 8.56005 17.078 3.08101 1.63712 1.01306 -0.622391 0.512589 -4.08042 0.313486 -0.0707108 0.697201
175 1 5.70632 20.007 3.19823 -3.42076 -2.85137 2.01629 0.129232 -4.07437 0.415773 0.227721 -0.616361
177 1 8.58858 20.043 3.39312 -1.05917 0.80188 -0.731301 0.886746 -3.99469 -0.712136 -0.658686 -1.4819
75 1 5.71713 19.9361 0.35783 -4.53949 -0.9021 2.29786 0.122609 -4.08992 0.160407 0.278663 -0.583709
65 1 5.67248 17.193 0.393976 -1.31158 -3.63153 -0.620776 0.319583 -4.12449 0.242117 -0.0804573 -0.334272
161 1 14.1852 17.2046 3.2909 -8.06951 -0.86164 0.0732044 0.201058 -4.14965 -0.204555 0.116735 -0.58704
68 1 9.83757 18.5862 1.83893 1.01621 0.95189 3.77626 0.487347 -4.13349 0.836375 0.611221 0.102553
70 1 12.7582 18.5098 1.80057 -2.75978 -0.241021 0.901339 0.15232 -4.03793 0.127432 0.784464 -0.624701
169 1 11.4357 17.1907 3.18823 -0.050047 0.778513 1.36961 0.106288 -4.08975 -0.872152 -0.303368 0.318728
179 1 11.4548 19.9395 3.26921 0.478562 4.61523 -0.247094 0.239042 -4.1138 -0.574586 -0.033375 -0.759206
69 1 11.3235 17.1806 0.449132 2.51938 -0.439877 2.89062 0.197549 -4.11376 0.189401 -0.331817 -0.76864
71 1 14.189 20.001 0.45545 -3.02828 1.71166 0.793185 0.284707 -3.9845 0.27099 -0.752808 -0.614253
61 1 14.2026 17.0274 0.417238 -2.79754 0.110739 5.17862 0.278993 -4.04748 -0.0523829 0.116606 -0.0821674
72 1 1.54936 21.3951 1.7222 2.3338 -3.4761 -2.56089 0.167135 -4.14838 -0.101471 -0.171028 -0.297947
74 1 4.24289 21.3195 1.84498 -0.775897 2.76848 -0.309503 0.338585 -4.16055 0.798357 -0.068093 -0.437238
82 1 1.5098 24.075 1.65356 -0.197856 1.54937 -4.05427 0.276727 -4.13962 -0.248723 0.452594 0.457214
84 1 4.24694 24.1216 1.79224 1.75243 2.83472 -4.12876 0.37833 -4.019 0.968883 1.09186 -0.474672
181 1 0.128659 22.763 3.13952 -3.03311 -1.67311 -0.629939 0.0450272 -4.08627 0.082087 0.0420243 -0.234647
183 1 2.89382 22.7594 3.09939 0.572942 -1.11899 -0.365379 0.14152 -4.11669 -0.431603 0.0996282 0.86421
76 1 7.14056 21.2635 1.76746 -0.691281 0.193514 1.05787 0.356631 -4.02956 0.0318512 1.01832 0.0941321
86 1 7.25436 24.2668 1.76994 -2.43118 3.29649 -1.15762 0.392967 -3.9742 -0.10676 -0.782105 -0.286712
185 1 5.72509 22.8979 3.10418 3.67767 -2.14848 -3.35625 0.455937 -4.10182 0.408804 -0.874981 0.237856
187 1 8.47118 22.692 3.26606 -0.732136 -0.532565 -1.73565 0.546954 -4.10089 0.398741 -0.0199813 -1.09124
78 1 9.92402 21.3232 1.71503 -2.14879 -1.2859 1.20999 0.204301 -4.10637 0.162479 0.379564 0.892999
80 1 12.7264 21.3466 1.78584 -2.02506 0.894117 1.33119 0.0624217 -4.05011 0.964073 -0.066238 -0.556591
88 1 9.99398 24.1702 1.80844 -1.34963 2.3224 -3.76156 0.186258 -4.13572 -0.288511 0.320457 0.0836812
90 1 12.8226 24.1983 1.68379 -3.32555 -1.34099 0.789537 0.171361 -4.08745 -0.840401 0.160185 0.876014
189 1 11.404 22.6532 3.12245 1.1462 2.87937 3.03823 0.278035 -4.01399 0.110551 1.12767 0.254552
92 1 1.49183 27.0716 1.75737 -1.55268 0.823337 -0.21304 0.0675287 -4.09316 0.125426 -0.574679 0.23435
93 1 2.95679 25.6072 0.367413 -2.98218 -1.24306 2.03838 0.156074 -4.12611 -0.292448 0.122711 -0.398802
94 1 4.31233 27.0701 1.9065 -2.42482 -0.468398 -1.32983 0.607482 -4.02352 -0.0949547 0.328963 -0.554033
193 1 2.87926 25.4829 3.11337 -1.0862 0.475835 1.41936 0.393753 -4.03984 -0.0640174 0.901652 0.34085
5 1 5.72241 28.2956 0.424949 2.69086 -0.906142 0.0342517 0.54879 -4.07724 0.188668 0.602588 -0.50775
107 1 8.62684 28.3911 3.21454 1.62718 -2.83475 -3.52836 0.28482 -4.11133 -0.729482 1.05695 -0.470605
96 1 7.19496 27.0059 1.75946 3.8854 -2.09663 -3.2721 0.0358274 -4.11306 -0.213418 -0.331505 0.406557
195 1 5.7699 25.6353 3.12754 -1.7019 -1.17403 1.74296 0.117583 -4.10262 0.157208 -0.0645365 0.227338
197 1 8.65402 25.6862 3.17737 -0.592902 -0.620959 0.00800132 0.309324 -4.10932 -0.856084 -1.11701 0.564217
7 1 8.51249 28.4072 0.444852 0.305773 -1.36188 3.04787 0.308522 -4.0532 -0.090285 0.43329 -0.906926
191 1 14.1954 25.5315 3.13625 -0.0885336 -4.4938 -0.48509 0.205395 -4.00993 0.681907 0.110583 -0.642546
98 1 9.85719 27.0277 1.7177 2.60699 4.64685 0.62246 0.379777 -4.13855 1.07146 0.0873589 -0.0541867
100 1 12.8111 27.1397 1.76949 0.688756 2.41483 -3.36628 0.108621 -4.08746 0.417035 -0.676844 0.00543706
199 1 11.3947 25.7747 3.17886 -1.77748 -0.753815 0.440887 0.57367 -4.04874 0.642772 -0.638295 -0.0194753
99 1 11.3966 25.6653 0.407698 -3.11862 -0.640777 0.494149 0.13347 -4.09117 -0.272499 -0.273252 -0.11759
102 1 1.43258 1.58866 4.62072 7.38627 -3.29026 1.48818 0.289311 -4.08438 0.21317 0.44834 -0.040008
104 1 4.40471 1.70471 4.53605 -2.62904 -0.431866 -2.50035 0.219916 -4.11036 -1.07862 0.424914 -0.629809
202 1 1.64591 1.56967 7.31857 2.02744 3.5456 -1.59179 0.577427 -4.05447 -1.16083 1.27323 0.542643
203 1 2.94499 0.259696 5.97105 -1.3304 -3.48688 0.0854903 0.12517 -4.10346 0.359654 -0.1075 -0.514748
204 1 4.18458 1.68524 7.39475 -0.935437 1.48785 2.63114 4.36582 -4.0788 1.79972 -0.953066 -0.206356
213 1 2.88677 3.08084 5.93891 -2.28947 -0.845795 -1.07431 0.331248 -4.12868 -0.00121488 -0.517147 0.427218
106 1 7.15632 1.63052 4.52192 0.736671 -1.16949 0.0239501 0.220629 -4.146 0.434053 0.770986 0.991121
205 1 5.64874 0.299036 5.84492 2.33469 0.995414 0.291621 0.522947 -4.01922 0.979512 -0.774437 1.55272
206 1 7.2548 1.68985 7.35862 -1.46106 -1.55409 1.7364 0.339171 -4.04481 -0.477205 -0.878325 0.408118
207 1 8.58474 0.236208 6.04218 1.31666 3.04051 1.49325 0.136973 -4.06952 0.234712 0.501632 -0.553586
215 1 5.78167 2.95842 6.09131 -1.49422 -2.50707 3.51511 0.490234 -4.05909 -0.698731 0.113107 -0.94057
217 1 8.60442 3.0921 5.99277 -1.80041 2.92479 -5.24384 0.119657 -4.09038 -0.649728 0.169858 0.50454
201 1 14.2143 0.277593 6.04559 -0.76465 1.66164 -3.30675 0.303053 -4.11785 -0.302847 0.0669826 -0.0961657
211 1 14.1953 3.09372 6.0961 0.131749 -3.47244 0.658656 0.240862 -4.1161 0.416019 -0.342147 -0.279386
108 1 9.98023 1.81548 4.64095 1.78008 -0.0382443 0.481447 0.560613 -4.02168 0.149068 -1.60603 -0.0127256
110 1 12.7567 1.63776 4.55659 0.143622 0.261967 0.471904 0.153674 -4.02145 0.119481 0.00365798 0.31624
208 1 9.93587 1.5992 7.44194 -2.11946 3.54369 -4.60115 0.124015 -4.19257 0.257727 0.696662 -0.256601
210 1 12.7168 1.62492 7.46845 1.93469 -2.84729 3.21644 0.347924 -4.05773 -0.0254326 0.0752113 -0.626265
219 1 11.4042 3.08595 6.01599 2.96876 -3.6 -0.306264 0.0645458 -4.05616 0.116264 0.174308 0.013272
112 1 1.47335 4.44722 4.69899 -2.08488 5.53109 1.88305 0.218371 -4.03791 0.261078 0.896286 -0.280712
114 1 4.45714 4.53943 4.7106 0.408107 -1.46821 1.68028 0.416203 -4.09993 -0.0911202 -0.596986 0.00952978
122 1 1.5387 7.19477 4.66828 -2.178 2.10286 -1.52883 0.262232 -4.01604 -0.469558 0.574389 -0.0862214
124 1 4.30599 7.3213 4.64708 -1.70609 -0.894295 0.386355 0.154771 -3.99251 -0.109418 0.507233 0.230462
212 1 1.5107 4.56417 7.44771 1.71349 1.1107 -0.37813 0.376468 -4.11324 0.409345 -0.508828 0.201413
214 1 4.35594 4.34938 7.46465 -3.60792 0.888428 1.10906 4.60434 -4.11799 0.0614092 0.522912 -0.804847
222 1 1.54559 7.23945 7.42766 2.60978 -1.28947 -2.65909 0.1539 -4.1232 -0.596629 -0.102465 -0.151234
223 1 3.00176 5.86832 6.05289 -2.9209 -3.41332 -1.19244 0.119125 -4.12672 0.157228 -0.349064 0.176333
224 1 4.45542 7.31972 7.46121 2.28078 -2.16034 3.83898 0.285646 -4.0618 -1.12824 0.0221802 -0.702286
116 1 7.08446 4.43511 4.64748 -0.717838 -0.661302 1.69127 0.351709 -4.12047 0.366578 0.453898 -0.198519
126 1 7.33953 7.39572 4.62783 1.37971 -3.46356 0.697126 0.47836 -4.01871 -0.869261 -0.199142 -0.469483
216 1 7.15048 4.45322 7.31989 0.663868 1.20315 1.59813 0.309419 -4.15062 0.156632 0.415268 0.568311
225 1 5.7941 6.05956 5.9734 0.299468 -1.75276 -1.18853 0.608028 -4.06275 -0.00564045 -0.61125 0.397219
226 1 7.22143 7.27669 7.43025 -1.92098 2.73055 -2.00716 0.108621 -4.15542 0.142326 0.108548 0.0348607
227 1 8.61587 5.8789 5.97954 -0.532809 -0.371899 0.126652 0.124026 -4.05664 -0.349431 0.216223 0.0913534
221 1 14.1524 5.86373 6.06602 0.796103 -1.93786 -0.0692733 0.12068 -4.08314 0.358773 0.187167 -0.619875
118 1 10.0291 4.4796 4.61292 -2.00022 0.251406 -1.34662 0.0958951 -4.14342 0.0584298 0.0201816 -0.540358
120 1 12.7727 4.51546 4.55331 -2.93314 -0.0391201 0.674702 0.102652 -4.13936 0.363481 -0.495701 0.698448
128 1 10.0124 7.32217 4.5675 -2.7644 2.28321 3.1472 0.116984 -4.12366 -0.729524 -0.262206 0.365931
130 1 12.7448 7.26336 4.57301 -1.8326 -3.86476 -3.53257 0.150864 -4.12629 0.496316 -0.186917 0.0318618
218 1 9.92391 4.44006 7.42482 2.54663 2.02038 1.45237 0.0866629 -4.13554 0.657549 0.177731 0.162552
220 1 12.7806 4.44772 7.41717 -0.879614 -1.25736 1.20844 0.0609324 -4.02866 0.0567912 -0.125221 0.457429
228 1 9.92162 7.27115 7.50395 0.0778168 -0.255412 1.79302 0.246499 -4.11065 0.142608 0.000896488 -0.0928429
229 1 11.2652 5.91426 6.04717 0.58398 1.74186 -1.1864 0.294403 -4.10903 0.882466 -0.283902 0.114675
230 1 12.8446 7.35538 7.34736 2.31232 0.678649 1.21522 0.267818 -4.07781 -0.856792 -1.21893 0.184023
132 1 1.49806 10.2454 4.53594 0.926583 1.77752 2.20689 0.195054 -4.04218 0.181966 -0.501382 0.0410422
134 1 4.33421 10.2257 4.66382 -1.95039 -2.01599 -1.69927 0.266744 -4.05972 0.0487185 -0.990416 0.0574905
232 1 1.56015 10.1641 7.44302 2.12226 0.0705619 -0.681687 0.200005 -4.11947 -0.212428 0.0947526 -0.0757888
233 1 2.86938 8.7146 6.06843 -0.683116 0.194601 5.31636 0.141554 -4.09579 0.0749254 0.289465 -0.607699
234 1 4.30212 10.2221 7.4229 -0.621179 0.157015 -0.123602 5.05497 -4.12099 0.637158 -0.71363 0.314113
241 1 0.149986 11.5192 5.97473 -2.41095 0.904273 -0.0212207 0.0888607 -4.08155 -0.415733 0.120234 0.0873696
243 1 2.87755 11.525 5.92549 -0.234391 0.744033 0.670144 0.225614 -4.04846 0.0196319 -0.0806795 0.370551
136 1 7.34978 10.1327 4.6427 0.629619 0.98562 1.20116 0.356993 -4.10004 -0.890329 0.174573 -0.118236
235 1 5.87066 8.81598 5.94785 0.465343 -1.43871 1.4062 0.358849 -4.10004 -0.611991 -0.944699 0.23154
236 1 7.13391 10.1574 7.44866 2.36863 -0.429749 -0.449581 0.252675 -4.13308 0.111939 0.305987 0.231816
237 1 8.63235 8.75913 6.15607 2.56455 0.935182 0.542097 0.329166 -4.13798 -0.220431 -0.259195 -0.597974
245 1 5.87987 11.5851 6.00821 0.240801 -0.541356 -0.243051 0.421544 -4.08579 -0.518398 -0.104374 -0.0539259
247 1 8.6244 11.498 6.11024 0.432483 -3.51449 2.45946 0.18413 -4.15046 -0.430696 0.312651 -0.0249251
231 1 14.2058 8.74973 5.97377 -0.187028 1.52542 1.17023 0.0843457 -4.15024 0.334701 -0.274105 -0.188437
138 1 9.92992 10.142 4.58008 -1.64946 -2.47072 4.24093 0.253604 -4.1583 0.908812 -0.135418 0.732689
140 1 12.8378 10.2224 4.58772 -3.06779 0.590986 0.953237 0.183628 -4.15271 -0.0818614 -0.437456 0.481863
238 1 10.0462 10.0877 7.44802 4.00462 1.03455 -0.403308 0.136064 -4.05664 0.262522 0.0924122 0.785042
239 1 11.364 8.67474 5.98066 1.07823 -1.10089 5.00007 0.0938382 -4.12089 -0.059641 0.318155 0.257211
240 1 12.788 10.0949 7.2819 0.473313 1.12475 -2.36237 0.342142 -4.03245 0.363842 0.448897 1.15009
249 1 11.3994 11.5636 6.10016 0.00818624 4.09037 -1.73351 0.227573 -4.1004 -0.387363 -0.440344 -0.280468
142 1 1.52181 13.0509 4.68391 -1.28477 -4.17543 2.9049 0.328289 -4.15883 0.00054562 -0.191181 -0.797895
144 1 4.29805 12.8216 4.52623 1.81958 -2.20134 0.0142737 0.392335 -4.09762 0.991069 0.638714 0.309002
152 1 1.51339 15.8576 4.66123 -0.669006 2.84052 -0.820189 4.97362 -4.18782 0.523238 -0.618585 -0.852184
154 1 4.25725 15.7179 4.58034 2.46855 -1.35996 -1.82568 0.30129 -4.08732 1.02746 0.712914 -0.491709
242 1 1.53992 12.9165 7.3939 0.280113 3.4737 -1.1283 0.111381 -4.18079 -0.00821513 0.289836 0.298614
244 1 4.24982 12.7782 7.41916 2.14938 -0.0921022 -0.749942 4.95195 -4.11615 0.423308 0.518467 -0.272832
251 1 0.128475 14.4623 6.06822 2.68999 -0.1114 0.508103 0.215255 -4.09449 -0.377163 -0.667005 -0.410643
252 1 1.63436 15.7834 7.31084 -3.12021 0.366244 0.726554 0.428151 -4.03863 -0.0101958 -0.347003 0.835125
253 1 3.02926 14.3678 6.04429 0.643288 -2.70259 -2.00417 0.343194 -4.04387 -0.453848 -0.184288 -0.0532289
254 1 4.32401 15.7314 7.50801 -3.29084 -1.84392 -1.68306 0.250442 -4.04164 -0.0140158 0.198987 -0.547742
146 1 7.13468 12.9886 4.59397 1.04428 0.1527 -2.62964 0.13033 -3.96446 0.754256 -0.189763 0.319497
156 1 7.1141 15.8395 4.61951 -5.45427 -4.00032 2.42238 0.281456 -4.0579 0.245597 -0.247319 -0.00774072
246 1 7.17912 12.9922 7.46149 0.991656 -1.68864 -0.448699 0.131608 -4.04904 0.761772 -0.556684 -0.0757837
255 1 5.79332 14.3612 5.96568 0.949383 2.2935 -3.25327 0.170658 -4.15482 -0.606947 -0.326942 0.279741
256 1 7.19239 15.8423 7.33135 -0.861153 0.781607 -0.146585 0.352439 -4.05112 0.671873 -1.08063 0.32313
257 1 8.60857 14.4287 6.0599 -2.00567 3.54744 2.76289 0.0705472 -4.11136 -0.134092 -0.488395 -0.960995
148 1 10.0789 12.8625 4.68627 2.53119 -0.204599 1.59625 0.296002 -4.05338 -1.03778 0.578002 -0.119335
150 1 12.8144 12.9078 4.65416 0.842405 -1.04171 -0.584461 0.15087 -4.14969 0.355472 0.133265 -0.000720117
158 1 10.0599 15.8093 4.67012 1.95172 -4.28031 -2.67566 0.2417 -4.07247 0.365803 -0.707976 -0.258954
160 1 12.7974 15.8078 4.57583 2.05154 2.79304 -0.0709358 0.175522 -4.10975 -0.0616405 -0.245493 0.307588
248 1 10.001 13.0598 7.46621 1.15591 3.93167 -3.97146 0.323435 -4.04744 0.334104 -0.0492953 -0.297898
250 1 12.9049 12.9601 7.37424 1.45982 -1.9964 -1.75047 0.240819 -4.10955 0.134331 -0.262738 0.588423
258 1 10.0849 15.781 7.43015 3.15439 -2.57917 -3.22034 0.181331 -4.13174 -0.519317 -0.855205 0.387257
259 1 11.5154 14.2983 6.00674 2.36546 0.76793 -0.871017 0.263973 -4.10476 -0.566964 0.7325 0.475341
260 1 12.7221 15.7462 7.45641 1.07372 0.97037 -2.70378 0.520547 -4.0212 0.587826 -0.114074 0.590257
162 1 1.61205 18.4318 4.60606 0.103087 0.473685 0.329909 0.464558 -4.09814 -0.192052 0.560897 0.327718
164 1 4.41893 18.6151 4.49854 -0.211573 3.22505 -5.20284 0.322584 -4.06167 -0.656399 -1.07277 0.697927
262 1 1.64124 18.6991 7.40847 -1.57751 0.894061 -4.43727 0.340543 -4.13231 -0.962722 -0.310444 0.0811498
263 1 3.02324 17.1738 5.99416 -2.37006 -0.133771 0.32695 0.249688 -4.10976 -0.191521 0.123302 0.529401
264 1 4.25569 18.5351 7.54462 2.99979 1.41468 -0.253245 0.453765 -4.05875 0.785328 0.554624 -0.801225
271 1 0.239882 19.931 5.90776 -2.9132 -1.24747 -1.34561 0.565937 -4.05881 0.117327 -0.257838 0.777559
273 1 3.06119 20.0027 6.00932 0.40391 -0.0741893 3.19324 0.348003 -4.12755 -0.339216 0.138485 -0.125844
166 1 7.16241 18.5363 4.58882 0.698547 0.150344 -2.49931 0.158554 -4.1936 0.111323 -0.0215036 0.137174
265 1 5.71847 17.1429 6.12166 -1.6126 -0.82668 -3.54668 0.388548 -4.11644 -0.877019 0.652566 -1.08751
266 1 7.25348 18.553 7.33252 1.95445 3.37989 -0.145865 0.517287 -4.04342 -0.782097 0.047292 0.575767
267 1 8.63962 17.1234 5.93896 1.62128 1.24999 -1.44411 0.247888 -4.07039 -0.637677 0.606243 0.576975
275 1 5.66392 19.9514 6.01523 0.0670137 -1.38317 -3.87798 0.290805 -4.11238 0.305027 -0.184553 0.522283
277 1 8.52362 20.0544 6.00516 0.898333 -0.0775842 -0.479706 0.245736 -4.13634 0.408279 0.186236 0.53418
261 1 14.1769 17.1487 6.08123 3.22524 -0.724689 1.23685 0.345427 -4.13505 0.448935 0.143016 0.0748944
168 1 9.9888 18.5753 4.62903 -3.61858 0.233632 -1.83299 0.185163 -4.0943 -0.0655758 -0.393977 -0.294586
170 1 12.8038 18.6463 4.72851 0.900172 4.64776 -2.52583 0.304225 -4.09862 -0.276413 -0.838975 -0.541252
268 1 9.90461 18.5053 7.5207 4.57801 -0.241298 0.328247 0.282369 -4.06739 0.351426 0.583474 -0.862858
269 1 11.4148 17.1891 6.18063 1.22914 3.37173 -1.05524 0.353825 -4.06228 0.80343 0.942134 -1.02678
270 1 12.909 18.7314 7.41341 -1.75346 -1.91228 -0.862528 0.518384 -4.08729 -0.483699 -0.172327 0.80005
279 1 11.3598 20.0486 5.98464 2.0114 -4.45816 0.994583 0.245398 -4.06713 -0.14528 -0.472163 0.560119
172 1 1.47279 21.4257 4.63194 2.33301 -0.225112 2.95214 0.260953 -4.10349 0.743518 0.367757 -0.59062
174 1 4.32705 21.4567 4.48817 -1.27528 -0.710527 -1.51037 0.253007 -4.10205 0.0312313 0.206767 0.213243
182 1 1.5749 24.1646 4.58729 -0.784188 -3.79054 -2.16947 0.0639236 -4.16914 -0.485158 0.535222 0.328375
184 1 4.3073 24.238 4.54726 -0.587332 0.565944 -1.32797 0.141002 -4.09054 0.580714 -0.468085 -0.161203
272 1 1.50093 21.4332 7.33799 -1.3891 0.701157 2.48604 0.343737 -4.129 0.54596 -0.437734 0.825352
274 1 4.4257 21.4489 7.48962 2.59471 -0.91757 -0.537123 0.247474 -4.03994 -0.296497 -0.165192 -0.566762
281 1 0.183488 22.7914 6.06537 -2.74019 0.616667 0.622568 0.140603 -4.00725 -0.600961 0.374471 -0.8809
282 1 1.52472 24.1909 7.49706 -1.23117 0.365724 -0.651941 0.152197 -4.11927 0.786011 0.0667273 -1.15746
283 1 2.92311 22.8102 6.08205 1.18139 2.06881 4.32688 0.158212 -4.06445 0.539406 0.128304 -0.392654
284 1 4.42474 24.2671 7.46665 -2.88227 1.45219 3.65201 0.152772 -4.05681 0.208985 -0.580685 -0.326635
176 1 7.06694 21.3141 4.65135 -3.95137 -1.5893 -1.01736 0.38217 -4.06052 0.329176 -0.0822941 -0.884311
186 1 7.17879 24.1447 4.50073 2.78581 2.06017 1.88695 0.180855 -4.01265 -0.104533 1.13598 0.44351
276 1 7.10716 21.4372 7.47937 2.60993 -1.18025 -2.38511 0.229625 -4.07694 0.394259 -0.157052 -0.364936
285 1 5.85589 22.7635 5.88871 1.31531 1.02106 -0.50399 0.506045 -4.04114 -1.25445 1.51251 1.38636
286 1 7.16944 24.2408 7.46099 1.08031 -1.08147 0.839848 0.254607 -4.06832 -0.0103204 -0.876834 -0.602909
287 1 8.6565 22.7436 5.9317 2.42 3.87829 -0.705154 0.316831 -4.23597 -0.463151 0.547692 1.04944
178 1 9.99102 21.4199 4.55168 -1.13098 -1.50552 3.15931 0.226058 -4.06684 1.05521 -0.207732 0.476327
180 1 12.8404 21.4228 4.67555 -0.471497 0.0061306 0.269058 0.271965 -4.20882 -0.365227 0.22058 -0.334014
188 1 10.0407 24.0693 4.45269 -1.30348 -2.27273 0.479064 0.771198 -3.98731 -0.474081 1.32927 0.287614
190 1 12.925 24.1389 4.56128 -1.55903 -2.12372 1.13416 0.396001 -4.04507 -0.855938 0.424095 -0.132186
278 1 9.94955 21.4304 7.52709 1.38589 -0.978514 1.96516 0.293123 -4.00069 -0.00882796 -0.818827 -0.898464
280 1 12.8739 21.3633 7.35113 1.61778 1.13426 1.57654 0.27567 -4.17901 -0.0578672 0.510559 0.157904
288 1 10.0194 24.1956 7.50891 2.68269 2.22443 1.78439 0.353276 -4.02322 -0.637993 -0.270844 -0.327628
289 1 11.3072 22.8471 6.01018 -3.96248 4.07387 -0.259648 0.478368 -4.12851 0.590189 -0.110089 0.147525
290 1 12.8777 24.1232 7.40344 1.06046 -1.98762 3.24564 0.232594 -4.13123 -0.176028 0.517744 -0.00755952
192 1 1.54582 26.9795 4.61794 0.832332 -0.820942 0.130328 0.140948 -4.20392 0.0228746 0.224386 0.0592186
194 1 4.33343 27.1078 4.56444 -1.61671 -3.20912 1.28134 0.245916 -4.09162 -0.510428 -0.816463 -0.752781
291 1 0.123486 25.6243 6.11982 -1.91934 -0.395923 -0.219087 0.345962 -4.02247 -0.012375 -0.329278 -1.00167
292 1 1.58125 27.1181 7.3245 0.521729 -0.104332 -0.21211 0.244288 -4.17156 0.118494 -0.605992 0.107503
293 1 3.0799 25.6086 5.98408 2.80973 1.17343 -0.298043 0.376146 -4.03253 -0.847154 -0.193059 0.573581
294 1 4.2495 27.1204 7.39648 -1.17778 2.9951 1.58236 0.247419 -4.08919 0.60025 -0.254725 0.0906484
196 1 7.3038 27.0489 4.69663 3.37805 -2.98627 4.17109 0.542429 -4.0441 -0.981484 -0.490574 -0.763624
295 1 5.73558 25.636 5.96462 2.43808 0.681994 -1.51506 0.147635 -4.14362 0.438045 0.158275 -0.0696516
296 1 7.17419 27.0665 7.31501 0.309675 6.50899 -1.89168 0.229158 -3.9893 -0.164983 1.05547 0.0217321
297 1 8.56397 25.5256 6.00798 -0.134748 1.31643 -3.31811 0.332728 -4.15633 1.33549 -0.0280205 -0.476875
209 1 11.3537 28.3011 6.0705 -0.393176 -1.47754 0.78913 0.762788 -4.01507 0.979469 1.1562 -1.32742
198 1 9.95313 27.0869 4.5066 0.689763 -0.698924 -1.31982 0.27814 -3.91625 0.918622 -0.412225 1.28619
200 1 13.0099 27.0067 4.55689 5.30296 -0.270392 0.651806 0.919136 -4.02427 -0.763222 0.404292 0.642543
298 1 9.9521 27.1594 7.46914 1.28797 -2.74568 -4.13594 0.322037 -4.05694 -0.823494 -0.990989 0.798552
299 1 11.357 25.6421 6.04769 0.613569 6.18239 1.53807 0.314782 -4.07993 0.646523 -0.0694434 -0.735579
300 1 12.9347 27.0657 7.4619 -0.577292 -1.28953 -3.83829 0.289728 -4.10068 -1.06873 -0.112771 -0.0119334
301 1 0.190771 0.330155 8.7146 0.5675 -0.168496 -2.46061 4.59562 -4.13691 0.0226237 -0.178409 0.503083
302 1 1.52998 1.64637 10.3708 -1.42736 -3.15682 0.972455 0.260678 -4.09293 0.0670646 -0.398258 -0.671793
303 1 2.87995 0.257353 8.85827 0.341516 -0.0404191 -2.60214 0.176716 -4.11895 0.231629 -0.493161 0.185482
304 1 4.29008 1.6221 10.2226 -4.04083 -0.468429 4.02966 0.145532 -4.07576 0.179914 0.83109 0.181049
311 1 0.149724 2.85167 8.85053 -1.74976 0.28104 0.763369 4.87276 -4.06736 -0.331925 1.86764 -0.804439
313 1 2.89377 2.99568 8.7447 0.148637 -0.416692 -0.495992 0.319621 -4.02446 -0.245507 0.894114 1.3129
403 1 2.9679 0.297361 11.7077 0.394335 0.406084 2.23505 0.170015 -4.10533 -0.380299 -0.918481 -0.309573
411 1 0.156785 3.04543 11.6654 0.660313 -0.658618 -1.38298 0.130078 -4.13538 -0.853772 0.303115 0.221801
413 1 2.87494 3.0559 11.7683 -3.05234 -3.9865 -0.430171 0.303115 -4.14485 0.603978 0.035278 -0.61602
305 1 5.63949 0.272746 8.85425 -2.6762 0.601797 -1.53878 0.267457 -4.05275 1.21303 0.231198 -0.722014
306 1 7.16827 1.7968 10.25 -0.497955 1.38302 -0.554626 0.421199 -3.94805 -0.41754 -1.32686 0.15776
307 1 8.54451 0.339894 8.89568 2.06573 -1.47317 -0.377265 0.302014 -4.1168 -0.262189 -1.2967 -0.0416538
315 1 5.88369 2.98404 8.77617 0.746495 3.22544 0.384377 0.616405 -4.04115 -1.03469 0.493962 -0.20739
317 1 8.5575 3.091 8.77736 0.877774 1.33708 0.284955 0.0701165 -4.2163 -0.391192 -0.078628 0.416038