ITEM: TIMESTEP
159500
ITEM: NUMBER OF ATOMS
2000
ITEM: BOX BOUNDS pp pp pp
1.0838953229856951e-01 1.4221610467701321e+01
2.1677906459713903e-01 2.8443220935402643e+01
-4.0685593491991998e+00 6.1388559349198758e+01
ITEM: ATOMS id type x y z vx vy vz c_csym c_peratom fx fy fz
2 1 1.62332 1.66863 -2.42377 -0.282889 -3.25185 -0.636516 0.279806 -3.94982 -0.588149 0.128729 -0.0763525
4 1 4.35789 1.61575 -2.50323 0.990702 -5.33602 3.45801 6.03244 -3.93257 0.0218476 0.388188 0.203427
11 1 0.115605 3.14255 -4.01569 0.617832 -0.194419 3.50607 0.250948 -3.86606 -0.0313683 -0.231069 -0.226675
101 1 0.126621 0.284403 -0.825558 -1.57173 1.46596 2.1275 0.15363 -3.9848 -0.197892 0.147904 -0.247836
103 1 2.85007 0.270771 -0.759928 0.287695 0.367304 -1.8153 0.250087 -3.83744 0.596369 0.00893124 0.422339
111 1 0.168447 3.08626 -0.796425 -2.2925 0.592843 0.179022 0.1358 -3.93658 0.032279 -0.287236 -0.317564
113 1 2.87763 3.13123 -0.73532 -1.71434 2.42111 -1.1208 5.9491 -3.90126 -0.257064 0.0813941 0.0873638
13 1 2.94284 3.10367 -4.04761 -0.0706192 -1.95523 0.774801 0.0765717 -3.87674 -0.337368 0.276971 0.316753
6 1 7.17995 1.58532 -2.43121 -1.53139 -1.81767 -2.43971 0.235597 -3.92025 -0.0167306 0.385066 0.0683563
17 1 8.63608 3.25517 -3.99235 -1.24355 -0.0988133 -0.860341 10.008 -3.91688 -0.640443 -0.683475 -0.113332
105 1 5.90739 0.22905 -0.794827 0.812795 -1.48127 -4.16198 0.296846 -3.92276 -0.619383 -0.362038 0.258208
115 1 5.79048 3.13764 -0.811057 -0.932742 0.818202 0.0439582 0.186573 -3.90546 -0.312268 -0.290945 -0.134864
117 1 8.60233 3.08029 -0.722577 0.475293 0.415756 -1.302 0.181484 -3.89213 -0.0539338 0.0561398 -0.631584
15 1 5.86915 3.09703 -4.00567 -1.1078 -3.23994 -0.243916 0.306612 -3.84285 -0.479695 0.0819106 -0.240809
8 1 9.98472 1.71462 -2.55815 1.02028 2.64764 -1.65962 0.455844 -3.90965 -0.123626 -0.322607 0.543711
9 1 11.3244 0.287262 -3.95806 -0.628437 1.37052 0.162777 5.68099 -3.9052 0.471831 -0.483292 0.225041
10 1 12.8557 1.68831 -2.50265 -0.261261 2.58464 0.684826 0.149708 -3.89077 -0.247037 0.276659 0.319964
109 1 11.3921 0.306018 -0.827752 4.17545 -4.26001 3.01885 0.174735 -3.90065 -0.0910554 -0.178919 -0.141608
119 1 11.4562 3.11085 -0.887286 -0.877516 0.612354 1.13148 0.166044 -3.94539 -0.352041 -0.325105 -0.0766684
12 1 1.52356 4.6359 -2.53627 1.18436 1.40208 1.05812 5.97507 -3.89568 0.138269 -0.443534 0.420503
14 1 4.34915 4.42365 -2.32145 -0.761965 1.11821 -1.53086 0.28439 -3.95846 -0.195783 0.494662 -0.409692
22 1 1.54026 7.32431 -2.50625 0.529166 1.27637 -0.648244 5.99773 -3.87636 0.136066 0.011873 0.646093
23 1 3.01689 5.92797 -4.03826 4.21453 0.286138 -0.65637 5.8594 -3.88084 -0.364361 0.153373 -0.38018
24 1 4.35552 7.36387 -2.42928 0.718611 1.41969 0.425215 0.114967 -3.90636 -0.0780544 0.0319561 -0.00486854
121 1 0.132435 5.82793 -0.804059 -2.35864 3.10392 -0.471262 0.197942 -3.89214 -0.136711 0.0154409 0.120047
123 1 3.01618 5.86763 -0.699618 1.00139 1.8653 -1.24788 5.96934 -3.91293 -0.535964 0.0681673 -0.410774
16 1 7.14135 4.5226 -2.34469 0.603539 0.154603 0.133915 0.169898 -3.94054 0.29343 -0.446881 -0.509012
25 1 5.70759 5.92495 -3.93923 -0.827089 1.1553 2.35682 5.18931 -3.95463 0.151804 -0.325496 -0.688409
26 1 7.1412 7.16975 -2.48362 -0.0337704 2.62343 0.778117 5.36897 -3.84747 -0.147333 0.708005 0.492069
125 1 5.74127 5.95799 -0.756553 -0.136011 -2.75282 -0.154075 0.139762 -4.02293 -0.197257 0.125996 0.00134786
127 1 8.57446 5.88387 -0.905048 -1.51658 -3.67076 0.00771245 0.419357 -3.8918 -0.0951009 0.349272 0.351897
18 1 10.0587 4.47472 -2.42767 2.01504 1.15568 0.108705 0.224131 -3.93464 -0.000213943 0.372244 0.455273
20 1 12.7939 4.54238 -2.46456 -0.022531 3.00342 -1.17168 0.0668056 -3.98723 0.180621 0.0574826 0.273203
28 1 10.1169 7.35391 -2.32984 1.08986 -1.21663 1.80841 5.671 -3.90935 -0.552353 0.0238651 -0.206075
29 1 11.4127 5.98723 -4.04898 1.3822 1.47477 -0.555896 0.0548468 -3.94975 -0.278037 -0.0775683 -0.292763
30 1 12.8531 7.28188 -2.36099 0.362699 -0.519128 0.486825 0.140449 -3.95703 -0.220953 0.323078 0.446107
129 1 11.3642 5.90889 -0.748715 -0.995542 1.01394 2.2528 0.115825 -3.99316 0.129093 -0.105653 -0.238252
32 1 1.48279 10.1923 -2.50349 2.66336 -1.18469 0.933482 0.255268 -4.00672 0.281341 -0.467659 0.189799
34 1 4.32744 10.195 -2.50248 -3.42019 -1.92301 1.41173 0.208745 -3.9152 0.0875933 -0.236714 0.158858
43 1 2.92107 11.628 -4.04392 2.17426 0.782241 3.50485 0.127235 -4.007 -0.115868 -0.391257 -0.555979
133 1 2.87707 8.77788 -0.7674 -1.44944 0.975575 0.710255 0.0945942 -3.84374 0.320617 -0.0795009 0.102582
141 1 0.146359 11.6297 -0.893044 -2.20193 -7.04944 -1.51669 0.354299 -3.9688 0.0597061 0.0162911 0.485891
143 1 2.92416 11.521 -0.793335 -0.572232 1.1909 1.77002 0.171421 -3.99205 -0.347522 0.0923692 -0.324472
36 1 7.17897 10.1662 -2.37733 0.10168 3.47717 0.174941 0.17761 -3.84821 0.151091 0.0334158 0.000204728
47 1 8.63625 11.4798 -3.95507 -1.46078 2.66256 0.234251 0.307134 -3.92709 -0.113335 -0.300138 -0.621198
135 1 5.71447 8.72482 -0.68357 -0.880733 0.590278 -0.109653 5.89116 -3.86973 0.125454 -0.14838 -0.251961
137 1 8.61908 8.74613 -0.864548 -4.19951 1.4167 -2.48788 0.392913 -3.93806 -0.0278815 -0.169603 0.0847225
145 1 5.78797 11.4174 -0.790481 0.913579 -3.10787 0.676852 5.9127 -3.89091 -0.395854 0.736166 0.360216
147 1 8.63173 11.5707 -0.67746 -2.52053 -2.66134 -2.016 0.207416 -3.93543 -0.134478 0.250831 -0.663075
37 1 8.64539 8.6808 -3.92224 -0.410704 1.96136 0.795798 5.60543 -3.97831 -0.173392 0.147744 -0.0689467
41 1 14.1834 11.5242 -3.95939 -1.35835 -5.95404 3.83557 0.267898 -3.95705 -0.170818 0.172437 -0.0059428
131 1 14.189 8.78043 -0.660577 -1.59748 2.05417 3.03081 0.448712 -3.85294 0.510343 -0.590602 -0.168662
38 1 10.1092 10.2499 -2.30199 0.647054 3.02786 -2.05404 0.504828 -3.94865 -0.808149 -0.736031 0.610233
39 1 11.3428 8.78317 -4.01086 2.80774 -0.622395 -1.00191 0.22495 -3.93723 0.591048 -0.310653 0.0704288
40 1 12.8549 10.1114 -2.28272 -1.75728 -0.634733 -0.267602 0.269477 -3.93514 -0.262567 0.0226857 -0.103327
139 1 11.4119 8.69776 -0.697658 -0.425376 2.4171 -0.0430739 0.116063 -3.99539 0.379699 0.266385 -0.363364
149 1 11.4267 11.5446 -0.696685 -0.904464 -0.906018 0.248794 0.186723 -3.95637 0.0442784 0.367894 -0.549167
49 1 11.351 11.4979 -3.97933 -3.94296 -1.72452 -3.57845 0.149022 -3.9003 0.393422 -0.0132657 -0.310193
42 1 1.60077 12.9976 -2.52171 -0.841826 -0.173751 0.753914 5.4985 -3.924 -0.230122 0.109338 0.41159
44 1 4.30049 12.9516 -2.53848 -1.17519 0.372824 -0.13007 6.28018 -3.98982 0.430685 -0.319302 0.252634
52 1 1.58776 15.7356 -2.26816 -0.585983 1.26946 1.71295 5.32144 -3.79136 -0.521162 -0.0413379 -0.397928
54 1 4.38463 15.6552 -2.43297 0.269637 0.959657 1.9614 5.94572 -3.97261 -0.598714 0.229781 -0.442913
153 1 2.9946 14.2978 -0.778837 -3.03426 -0.361765 3.65674 0.170228 -3.89776 -0.510669 -0.299289 0.328815
46 1 7.13899 12.8477 -2.46014 -0.042375 -0.703018 -2.37022 5.40411 -3.90114 -0.208279 0.122664 0.225783
56 1 7.08452 15.7726 -2.52034 0.19616 0.505449 -1.21975 0.279179 -3.98368 0.226136 -0.264777 0.019595
155 1 5.76502 14.3443 -0.841698 -0.699273 2.50818 -2.71856 0.105799 -3.92782 -0.0710122 0.11303 0.434346
157 1 8.53251 14.4644 -0.748829 1.77519 1.9958 -4.01974 5.36347 -3.91659 -0.037888 -0.0515438 0.179354
57 1 8.49816 14.3386 -3.91325 5.27468 2.46447 0.151665 0.56905 -3.81723 0.0973981 0.306828 -0.585408
51 1 14.0057 14.3518 -4.0681 5.08997 3.62125 -2.07853 9.8245 -3.84114 0.952794 -0.0915525 -0.430415
151 1 14.2009 14.4155 -0.769563 -4.71089 2.01634 -0.85659 0.132254 -3.84036 0.036454 -0.215131 0.172904
48 1 9.93985 13.0563 -2.40416 2.86016 2.34417 0.701272 5.39667 -3.92276 0.103973 -0.482062 0.229623
50 1 12.7181 12.9904 -2.40714 0.559624 -1.36974 -0.820506 0.190884 -3.92682 0.150979 -0.191676 0.368395
58 1 9.99316 15.7186 -2.42409 -3.3381 -1.51398 5.38263 0.186995 -3.97921 0.298301 0.42558 0.0256466
60 1 12.7967 15.7437 -2.41786 1.53771 1.90327 -4.70531 0.1165 -3.98611 -0.0481223 0.114023 0.284374
159 1 11.3491 14.3264 -0.714264 -0.265735 -1.65506 -3.98071 0.157479 -3.93579 0.114802 0.351264 -0.309359
62 1 1.43944 18.5161 -2.37864 0.272627 0.831543 -0.200207 0.118703 -3.88726 0.299331 0.189731 -0.0810324
64 1 4.38586 18.6552 -2.37404 1.24428 1.0664 2.86252 5.53102 -3.89673 -0.375538 -0.832507 0.410238
163 1 2.94245 17.1558 -0.894524 0.341627 2.40032 0.506019 0.43186 -3.9179 0.468386 0.374826 0.533383
171 1 0.141802 19.9783 -0.673223 -0.0590841 -1.37942 4.27312 0.184849 -3.99095 -0.429375 -0.389626 -0.132999
173 1 2.89555 19.9823 -0.803065 0.785649 -1.23368 2.3689 0.153909 -3.97086 -0.48941 0.0401861 0.45884
66 1 7.24355 18.6165 -2.3749 2.75597 -4.35103 0.905848 5.00114 -3.97533 -0.712777 -0.211861 0.0797937
67 1 8.57677 17.1461 -4.04198 -4.30079 -3.56988 1.31798 0.0496349 -4.01448 -0.424896 -0.402522 0.0314537
165 1 5.78304 17.093 -0.851638 1.97311 1.99329 -0.167527 0.251377 -3.92408 -0.131844 0.227656 -0.0516526
167 1 8.56005 17.078 -0.91013 1.63712 1.01306 -0.622391 4.93603 -3.95995 0.00772181 -0.0435239 0.827298
175 1 5.70632 20.007 -0.774622 -3.42076 -2.85137 2.01629 0.14005 -3.93581 0.349107 0.182288 0.195201
177 1 8.58858 20.043 -0.549317 -1.05917 0.80188 -0.731301 5.41858 -3.89296 0.190382 -0.21259 -0.884112
75 1 5.71713 19.9361 -4.05821 -4.53949 -0.9021 2.29786 6.48692 -3.91736 -0.235197 0.386521 -0.537218
65 1 5.67248 17.193 -4.01643 -1.31158 -3.63153 -0.620776 0.348943 -3.95411 0.0354448 0.162002 -0.396207
161 1 14.1852 17.2046 -0.667489 -8.06951 -0.86164 0.0732044 0.232989 -3.99878 0.214804 -0.032362 -0.21699
68 1 9.83757 18.5862 -2.34601 1.01621 0.95189 3.77626 5.60279 -3.95295 0.516111 0.475702 -0.096278
70 1 12.7582 18.5098 -2.39036 -2.75978 -0.241021 0.901339 0.161559 -3.84792 0.355733 0.44896 -0.0296308
169 1 11.4357 17.1907 -0.786181 -0.050047 0.778513 1.36961 0.115186 -3.9139 -0.293212 -0.168706 0.167427
179 1 11.4548 19.9395 -0.69256 0.478562 4.61523 -0.247094 6.21127 -3.95045 -0.367319 0.219206 -0.208584
69 1 11.3235 17.1806 -3.95266 2.51938 -0.439877 2.89062 0.237411 -3.91103 0.572732 -0.260969 -0.529175
71 1 14.189 20.001 -3.94536 -3.02828 1.71166 0.793185 0.323126 -3.81541 -0.286552 -0.513397 -0.113544
61 1 14.2026 17.0274 -3.98953 -2.79754 0.110739 5.17862 0.313191 -3.8677 0.0787067 -0.078933 -0.227949
72 1 1.54936 21.3951 -2.48096 2.3338 -3.4761 -2.56089 5.98827 -3.99563 -0.0996576 -0.318622 -0.352853
74 1 4.24289 21.3195 -2.33902 -0.775897 2.76848 -0.309503 0.397438 -4.06409 0.619201 -0.217251 -0.724383
82 1 1.5098 24.075 -2.56031 -0.197856 1.54937 -4.05427 0.308912 -3.97197 -0.11305 0.673437 0.0444217
84 1 4.24694 24.1216 -2.39999 1.75243 2.83472 -4.12876 5.34597 -3.89496 0.234668 0.659373 -0.512603
181 1 0.128659 22.763 -0.842493 -3.03311 -1.67311 -0.629939 0.0493103 -3.97866 -0.0934799 -0.116183 -0.146717
183 1 2.89382 22.7594 -0.888879 0.572942 -1.11899 -0.365379 0.179725 -4.03513 -0.243045 0.338585 0.738641
76 1 7.14056 21.2635 -2.42864 -0.691281 0.193514 1.05787 5.61068 -3.80125 0.0635202 0.686483 0.262659
86 1 7.25436 24.2668 -2.42577 -2.43118 3.29649 -1.15762 5.9712 -3.81317 -0.242132 -0.531527 -0.0756412
185 1 5.72509 22.8979 -0.883341 3.67767 -2.14848 -3.35625 5.71392 -3.9621 -0.121943 -0.475662 0.185414
187 1 8.47118 22.692 -0.69621 -0.732136 -0.532565 -1.73565 5.4662 -3.92162 0.243163 -0.0992002 -0.466604
78 1 9.92402 21.3232 -2.48924 -2.14879 -1.2859 1.20999 0.239599 -3.92649 -0.0433465 0.33051 0.591513
80 1 12.7264 21.3466 -2.40739 -2.02506 0.894117 1.33119 0.0660848 -3.89522 0.399616 0.350025 -0.373329
88 1 9.99398 24.1702 -2.38126 -1.34963 2.3224 -3.76156 0.219931 -3.8923 -0.0988876 -0.0816306 0.11324
90 1 12.8226 24.1983 -2.52536 -3.32555 -1.34099 0.789537 0.190586 -3.86572 -0.530462 -0.209756 0.590752
189 1 11.404 22.6532 -0.862227 1.1462 2.87937 3.03823 0.297643 -3.84682 0.0611022 0.452841 -0.104505
92 1 1.49183 27.0716 -2.4403 -1.55268 0.823337 -0.21304 0.0703956 -3.87919 -0.274022 0.107534 0.362678
93 1 2.95679 25.6072 -4.04713 -2.98218 -1.24306 2.03838 0.183101 -3.88462 -0.0144924 -0.00596433 -0.46515
94 1 4.31233 27.0701 -2.2679 -2.42482 -0.468398 -1.32983 0.742761 -3.87997 -0.00274135 -0.0133741 -0.167426
193 1 2.87926 25.4829 -0.872725 -1.0862 0.475835 1.41936 5.75518 -3.8977 0.243722 0.666137 0.190539
5 1 5.72241 28.2956 -3.98062 2.69086 -0.906142 0.0342517 5.2678 -3.9229 -0.179794 0.0691187 -0.623927
107 1 8.62684 28.3911 -0.755766 1.62718 -2.83475 -3.52836 5.85142 -3.98933 -0.0563745 0.537816 -0.247375
96 1 7.19496 27.0059 -2.43788 3.8854 -2.09663 -3.2721 0.0405376 -3.99683 -0.448799 -0.0465633 0.202516
195 1 5.7699 25.6353 -0.856337 -1.7019 -1.17403 1.74296 6.08673 -3.84312 0.251173 -0.314559 0.537151
197 1 8.65402 25.6862 -0.798731 -0.592902 -0.620959 0.00800132 0.332074 -3.98987 -0.806876 -0.681282 0.217915
7 1 8.51249 28.4072 -3.95761 0.305773 -1.36188 3.04787 0.368679 -3.9277 0.0389624 -0.227258 -0.681335
191 1 14.1954 25.5315 -0.846272 -0.0885336 -4.4938 -0.48509 0.210085 -3.85657 0.153985 0.363185 -0.333509
98 1 9.85719 27.0277 -2.48615 2.60699 4.64685 0.62246 5.70596 -4.01936 0.583477 0.291072 -0.272837
100 1 12.8111 27.1397 -2.42628 0.688756 2.41483 -3.36628 0.112427 -3.90207 -0.130376 -0.508778 -0.225242
199 1 11.3947 25.7747 -0.797012 -1.77748 -0.753815 0.440887 5.54323 -3.85744 0.131819 -0.274095 -0.532305
99 1 11.3966 25.6653 -4.00056 -3.11862 -0.640777 0.494149 0.145422 -3.93745 -0.0829908 -0.093136 0.0279293
102 1 1.43258 1.58866 0.869825 7.38627 -3.29026 1.48818 0.301397 -3.99124 0.114741 0.442364 0.230953
104 1 4.40471 1.70471 0.771945 -2.62904 -0.431866 -2.50035 0.239954 -3.88378 -0.347868 -0.134319 -0.233244
202 1 1.64591 1.56967 3.98863 2.02744 3.5456 -1.59179 4.83164 -4.00812 -1.06564 0.702126 0.303799
203 1 2.94499 0.259696 2.43085 -1.3304 -3.48688 0.0854903 0.132155 -4.0169 0.221059 -0.0650099 -0.463699
204 1 4.18458 1.68524 4.07669 -0.935437 1.48785 2.63114 4.78003 -3.95545 1.223 -0.260811 -0.096595
213 1 2.88677 3.08084 2.39369 -2.28947 -0.845795 -1.07431 0.372906 -3.96303 -0.0703009 -0.197913 0.165789
106 1 7.15632 1.63052 0.755604 0.736671 -1.16949 0.0239501 0.259211 -4.00992 0.338038 0.494363 0.583229
205 1 5.64874 0.299036 2.28503 2.33469 0.995414 0.291621 9.50982 -3.85511 0.372435 -0.22325 0.572096
206 1 7.2548 1.68985 4.03492 -1.46106 -1.55409 1.7364 5.00251 -3.9007 -0.0690221 -0.379306 -0.178853
207 1 8.58474 0.236208 2.51308 1.31666 3.04051 1.49325 0.16259 -3.92084 0.0621764 0.0391891 -0.520798
215 1 5.78167 2.95842 2.56987 -1.49422 -2.50707 3.51511 0.550022 -3.90677 -0.093058 0.528082 -0.597582
217 1 8.60442 3.0921 2.45596 -1.80041 2.92479 -5.24384 0.124065 -3.98815 -0.133929 -0.0140717 0.235836
201 1 14.2143 0.277593 2.51702 -0.76465 1.66164 -3.30675 0.333583 -3.9533 -0.507772 -0.145591 -0.040125
211 1 14.1953 3.09372 2.57541 0.131749 -3.47244 0.658656 0.295468 -3.87792 0.108786 -0.561809 0.236567
108 1 9.98023 1.81548 0.893216 1.78008 -0.0382443 0.481447 5.85697 -3.8449 -0.145537 -1.03675 -0.314255
110 1 12.7567 1.63776 0.795692 0.143622 0.261967 0.471904 0.167571 -3.83158 0.360916 -0.143892 0.195323
219 1 11.4042 3.08595 2.48281 2.96876 -3.6 -0.306264 0.0669103 -3.89228 0.222091 -0.141072 0.328656
112 1 1.47335 4.44722 0.960306 -2.08488 5.53109 1.88305 0.259037 -3.90288 -0.163319 0.561004 0.160339
114 1 4.45714 4.53943 0.973728 0.408107 -1.46821 1.68028 5.39751 -3.96635 -0.167054 -0.681274 -0.10381
122 1 1.5387 7.19477 0.924802 -2.178 2.10286 -1.52883 0.270159 -3.82417 -0.344934 0.515516 -0.061116
124 1 4.30599 7.3213 0.900299 -1.70609 -0.894295 0.386355 0.162126 -3.91317 -0.0186106 0.216017 -0.00141522
223 1 3.00176 5.86832 2.52545 -2.9209 -3.41332 -1.19244 0.120765 -3.95225 0.0348527 0.311647 0.494253
116 1 7.08446 4.43511 0.900758 -0.717838 -0.661302 1.69127 5.51229 -3.93067 0.754337 0.404891 0.129539
126 1 7.33953 7.39572 0.878039 1.37971 -3.46356 0.697126 5.72761 -3.83082 -0.580501 -0.229008 -0.0914638
216 1 7.15048 4.45322 3.99016 0.663868 1.20315 1.59813 0.367956 -3.99545 -0.23635 0.182631 -0.100429
225 1 5.7941 6.05956 2.43357 0.299468 -1.75276 -1.18853 5.7923 -3.89643 -0.1278 -0.364442 0.159765
227 1 8.61587 5.8789 2.44067 -0.532809 -0.371899 0.126652 0.143524 -3.921 -0.378242 0.287601 0.189708
221 1 14.1524 5.86373 2.54063 0.796103 -1.93786 -0.0692733 0.135722 -3.95203 0.146921 0.117028 0.107662
118 1 10.0291 4.4796 0.860811 -2.00022 0.251406 -1.34662 5.74924 -4.00325 -0.441914 0.189627 -0.299433
120 1 12.7727 4.51546 0.791901 -2.93314 -0.0391201 0.674702 0.125828 -3.94763 0.099164 -0.120124 0.27231
128 1 10.0124 7.32217 0.808302 -2.7644 2.28321 3.1472 5.81534 -3.99046 -0.598889 0.179082 0.0906579
130 1 12.7448 7.26336 0.814676 -1.8326 -3.86476 -3.53257 0.176348 -3.95951 0.347323 -0.245361 0.5217
218 1 9.92391 4.44006 4.11146 2.54663 2.02038 1.45237 0.0903758 -3.97006 0.551525 0.196724 0.34365
220 1 12.7806 4.44772 4.10261 -0.879614 -1.25736 1.20844 0.0667002 -3.84474 -0.325238 0.241852 0.496188
229 1 11.2652 5.91426 2.51884 0.58398 1.74186 -1.1864 5.42878 -3.96974 0.53016 -0.0112132 0.0884314
230 1 12.8446 7.35538 4.02191 2.31232 0.678649 1.21522 0.284944 -3.92895 -0.636694 -0.722278 0.0280199
132 1 1.49806 10.2454 0.771813 0.926583 1.77752 2.20689 0.211789 -3.93151 0.11408 -0.641826 0.425659
134 1 4.33421 10.2257 0.91965 -1.95039 -2.01599 -1.69927 5.5964 -3.89318 0.139849 -0.411897 0.128787
233 1 2.86938 8.7146 2.54343 -0.683116 0.194601 5.31636 0.150253 -3.82658 0.303649 0.0883745 0.0114029
234 1 4.30212 10.2221 4.10923 -0.621179 0.157015 -0.123602 5.67127 -3.90312 0.692575 -0.353643 0.219246
241 1 0.149986 11.5192 2.4351 -2.41095 0.904273 -0.0212207 0.097159 -3.97351 -0.030064 0.0853638 -0.00367511
243 1 2.87755 11.525 2.37818 -0.234391 0.744033 0.670144 0.270366 -3.94806 0.0322921 -0.291111 0.187059
136 1 7.34978 10.1327 0.895237 0.629619 0.98562 1.20116 5.20959 -3.99663 -0.937716 -0.192164 -0.247498
235 1 5.87066 8.81598 2.40403 0.465343 -1.43871 1.4062 0.40822 -3.92668 -0.643651 -0.389718 0.347644
237 1 8.63235 8.75913 2.64474 2.56455 0.935182 0.542097 0.417276 -4.03062 -0.480867 -0.241782 -0.685832
245 1 5.87987 11.5851 2.47381 0.240801 -0.541356 -0.243051 0.426808 -3.92167 -0.579947 -0.284238 0.0141803
247 1 8.6244 11.498 2.59176 0.432483 -3.51449 2.45946 6.0875 -4.01347 -0.357858 0.415756 -0.157463
231 1 14.2058 8.74973 2.434 -0.187028 1.52542 1.17023 0.088863 -3.9606 0.518241 -0.179382 -0.0129386
138 1 9.92992 10.142 0.822848 -1.64946 -2.47072 4.24093 5.47515 -4.01755 0.754887 -0.119453 0.374799
140 1 12.8378 10.2224 0.831678 -3.06779 0.590986 0.953237 0.206202 -3.97642 -0.441077 -0.47617 0.395725
239 1 11.364 8.67474 2.44196 1.07823 -1.10089 5.00007 0.105354 -3.95875 0.32439 -0.0167303 0.124694
240 1 12.788 10.0949 3.94623 0.473313 1.12475 -2.36237 10.5539 -3.87581 0.0370281 0.275985 0.756165
249 1 11.3994 11.5636 2.5801 0.00818624 4.09037 -1.73351 0.276508 -3.95748 -0.347699 -0.450621 -0.147789
142 1 1.52181 13.0509 0.942879 -1.28477 -4.17543 2.9049 0.382977 -3.94555 -0.184646 0.181826 -0.406984
144 1 4.29805 12.8216 0.760594 1.81958 -2.20134 0.0142737 5.09458 -3.91166 0.75281 0.940158 0.307954
152 1 1.51339 15.8576 0.916651 -0.669006 2.84052 -0.820189 5.60234 -4.03053 0.0990728 -0.891204 -0.586398
154 1 4.25725 15.7179 0.823144 2.46855 -1.35996 -1.82568 0.313139 -3.91292 0.375348 0.200941 -0.258173
242 1 1.53992 12.9165 4.07571 0.280113 3.4737 -1.1283 0.13201 -3.9772 0.184256 0.119445 -0.119584
244 1 4.24982 12.7782 4.10491 2.14938 -0.0921022 -0.749942 5.61083 -3.9093 0.0891284 0.541569 0.000308308
251 1 0.128475 14.4623 2.54319 2.68999 -0.1114 0.508103 0.237927 -3.92781 -0.476758 -0.398003 -0.0512886
252 1 1.63436 15.7834 3.97968 -3.12021 0.366244 0.726554 4.81604 -3.8831 0.101304 -0.056038 0.0934207
253 1 3.02926 14.3678 2.51552 0.643288 -2.70259 -2.00417 0.372489 -3.92708 -0.101814 -0.211759 -0.0305363
146 1 7.13468 12.9886 0.838899 1.04428 0.1527 -2.62964 0.13449 -3.81705 0.420823 -0.392013 -0.178754
156 1 7.1141 15.8395 0.868421 -5.45427 -4.00032 2.42238 0.306836 -3.94167 0.349102 -0.24201 0.256705
255 1 5.79332 14.3612 2.42465 0.949383 2.2935 -3.25327 6.2391 -3.90958 -0.340862 -0.070782 0.184554
256 1 7.19239 15.8423 4.0034 -0.861153 0.781607 -0.146585 0.413763 -3.98662 0.342991 -0.122799 0.391055
257 1 8.60857 14.4287 2.53356 -2.00567 3.54744 2.76289 0.0775773 -3.90718 -0.447117 -0.186806 -0.0779493
148 1 10.0789 12.8625 0.945605 2.53119 -0.204599 1.59625 5.43268 -3.89851 -0.594664 0.221397 0.0160467
150 1 12.8144 12.9078 0.908479 0.842405 -1.04171 -0.584461 0.16767 -3.99133 0.137574 0.000349206 -0.29714
158 1 10.0599 15.8093 0.926935 1.95172 -4.28031 -2.67566 0.274907 -3.86729 -0.33489 -0.472223 -0.0399611
160 1 12.7974 15.8078 0.817926 2.05154 2.79304 -0.0709358 0.215331 -3.91998 0.117364 -0.00356649 0.822476
250 1 12.9049 12.9601 4.05298 1.45982 -1.9964 -1.75047 0.291431 -3.95743 -0.112177 -0.403268 0.341977
259 1 11.5154 14.2983 2.47211 2.36546 0.76793 -0.871017 0.271872 -3.97472 -0.843283 0.530736 0.15188
162 1 1.61205 18.4318 0.852874 0.103087 0.473685 0.329909 5.33419 -3.9269 -0.402234 0.573572 0.344347
164 1 4.41893 18.6151 0.728579 -0.211573 3.22505 -5.20284 0.376565 -3.93143 -0.0585965 -0.364047 0.168728
262 1 1.64124 18.6991 4.09255 -1.57751 0.894061 -4.43727 5.33398 -3.9557 -0.494404 -0.56652 -0.239026
263 1 3.02324 17.1738 2.45757 -2.37006 -0.133771 0.32695 0.281697 -3.98208 -0.101169 0.442018 0.532939
271 1 0.239882 19.931 2.35768 -2.9132 -1.24747 -1.34561 0.635908 -3.95053 -0.189649 -0.0568576 0.334654
273 1 3.06119 20.0027 2.47509 0.40391 -0.0741893 3.19324 5.71339 -3.92605 -0.348216 0.135766 -0.126438
166 1 7.16241 18.5363 0.832946 0.698547 0.150344 -2.49931 0.200135 -3.94907 0.00117255 -0.152047 0.0941563
265 1 5.71847 17.1429 2.60496 -1.6126 -0.82668 -3.54668 4.87274 -3.93581 -0.33212 0.201889 -0.157336
266 1 7.25348 18.553 4.00476 1.95445 3.37989 -0.145865 5.19522 -3.8606 -0.723199 -0.1453 0.0271344
267 1 8.63962 17.1234 2.39375 1.62128 1.24999 -1.44411 0.285248 -3.92411 -0.139072 0.377462 0.585567
275 1 5.66392 19.9514 2.48192 0.0670137 -1.38317 -3.87798 5.32205 -3.93027 0.363059 0.37975 0.052012
277 1 8.52362 20.0544 2.47028 0.898333 -0.0775842 -0.479706 4.94784 -3.95213 0.632541 0.000937515 -0.192665
261 1 14.1769 17.1487 2.55822 3.22524 -0.724689 1.23685 5.23271 -3.97849 0.0185741 0.209902 0.168987
168 1 9.9888 18.5753 0.879432 -3.61858 0.233632 -1.83299 0.23339 -3.89685 -0.0907158 -0.150215 0.158406
170 1 12.8038 18.6463 0.994437 0.900172 4.64776 -2.52583 0.363006 -3.97877 -0.191958 -0.830295 -0.12219
269 1 11.4148 17.1891 2.67313 1.22914 3.37173 -1.05524 0.442751 -3.93739 0.0791545 0.116211 -0.981057
270 1 12.909 18.7314 4.09826 -1.75346 -1.91228 -0.862528 5.64328 -3.88832 -0.588895 -0.301234 0.470044
279 1 11.3598 20.0486 2.44656 2.0114 -4.45816 0.994583 0.290356 -3.86666 -0.569833 0.072966 0.207227
172 1 1.47279 21.4257 0.882795 2.33301 -0.225112 2.95214 0.291432 -3.94947 0.882997 0.128844 -0.242283
174 1 4.32705 21.4567 0.716596 -1.27528 -0.710527 -1.51037 0.29933 -3.94454 0.269293 -0.296556 0.160771
182 1 1.5749 24.1646 0.831178 -0.784188 -3.79054 -2.16947 0.0661172 -3.95546 -0.755843 0.44876 0.483455
184 1 4.3073 24.238 0.784902 -0.587332 0.565944 -1.32797 0.148657 -3.95176 0.434629 -0.120904 -0.0279382
272 1 1.50093 21.4332 4.01108 -1.3891 0.701157 2.48604 0.405695 -4.00741 0.150766 -0.0270819 0.20917
281 1 0.183488 22.7914 2.53989 -2.74019 0.616667 0.622568 0.174718 -3.91618 -0.428414 0.247423 0.0118012
283 1 2.92311 22.8102 2.55916 1.18139 2.06881 4.32688 0.199131 -3.87799 0.760702 -0.250388 -0.346144
176 1 7.06694 21.3141 0.905239 -3.95137 -1.5893 -1.01736 0.405092 -3.98319 0.357668 0.478209 -0.286059
186 1 7.17879 24.1447 0.731111 2.78581 2.06017 1.88695 0.205182 -3.87096 0.0383608 0.549778 0.22896
285 1 5.85589 22.7635 2.33567 1.31531 1.02106 -0.50399 0.591132 -3.86905 -0.582141 0.237397 0.520361
287 1 8.6565 22.7436 2.38536 2.42 3.87829 -0.705154 11.127 -4.0193 -0.479147 0.149666 0.0380191
178 1 9.99102 21.4199 0.790016 -1.13098 -1.50552 3.15931 0.267023 -4.01126 0.488309 -0.405043 0.177056
180 1 12.8404 21.4228 0.933211 -0.471497 0.0061306 0.269058 0.325037 -4.05261 -0.114918 0.50259 0.230921
188 1 10.0407 24.0693 0.675582 -1.30348 -2.27273 0.479064 4.99751 -3.8523 -0.419773 0.708707 -0.118531
190 1 12.925 24.1389 0.801113 -1.55903 -2.12372 1.13416 5.77656 -3.83317 -0.348237 0.335736 0.334277
280 1 12.8739 21.3633 4.02627 1.61778 1.13426 1.57654 5.79589 -3.95263 -0.0381918 0.235819 0.246082
289 1 11.3072 22.8471 2.47608 -3.96248 4.07387 -0.259648 5.26831 -3.96125 0.0577335 -0.0304672 0.536459
290 1 12.8777 24.1232 4.08674 1.06046 -1.98762 3.24564 0.243366 -3.96173 -0.381226 0.375648 0.296361
192 1 1.54582 26.9795 0.866608 0.832332 -0.820942 0.130328 5.42858 -3.94718 -0.236118 0.0780926 0.253675
194 1 4.33343 27.1078 0.804759 -1.61671 -3.20912 1.28134 0.257182 -3.92238 -0.402271 -0.730064 -0.516927
291 1 0.123486 25.6243 2.60283 -1.91934 -0.395923 -0.219087 0.427906 -3.89612 -0.187957 -0.40292 -0.62753
292 1 1.58125 27.1181 3.99549 0.521729 -0.104332 -0.21211 5.50778 -3.98697 0.0645031 -0.575052 -0.144894
293 1 3.0799 25.6086 2.44591 2.80973 1.17343 -0.298043 6.04395 -3.87978 -0.821216 -0.2618 0.305293
294 1 4.2495 27.1204 4.0787 -1.17778 2.9951 1.58236 5.15848 -3.92789 0.340573 -0.146579 -0.493958
196 1 7.3038 27.0489 0.957583 3.37805 -2.98627 4.17109 5.01388 -3.88569 -0.805412 -0.0347078 -0.646082
295 1 5.73558 25.636 2.42341 2.43808 0.681994 -1.51506 5.35317 -3.92809 0.215352 0.0921366 0.344026
296 1 7.17419 27.0665 3.98452 0.309675 6.50899 -1.89168 0.270034 -3.87644 -0.284824 0.166884 0.105929
297 1 8.56397 25.5256 2.47354 -0.134748 1.31643 -3.31811 0.367053 -3.90198 0.646505 -0.0639809 0.0445484
209 1 11.3537 28.3011 2.54581 -0.393176 -1.47754 0.78913 6.10662 -3.79866 0.357766 0.782598 -0.507406
198 1 9.95313 27.0869 0.737901 0.689763 -0.698924 -1.31982 5.30617 -3.81802 0.502935 0.0778172 0.885623
200 1 13.0099 27.0067 0.796034 5.30296 -0.270392 0.651806 5.70244 -3.84945 -0.310949 0.0662668 0.510735
299 1 11.357 25.6421 2.51945 0.613569 6.18239 1.53807 6.44876 -3.7953 0.401796 -0.0118845 0.0319624
301 1 0.190771 0.330155 5.60248 0.5675 -0.168496 -2.46061 5.07518 -3.98825 -0.138272 -0.362337 0.0422127
302 1 1.52998 1.64637 7.51705 -1.42736 -3.15682 0.972455 0.33318 -3.93953 0.229429 -0.411319 -0.198149
303 1 2.87995 0.257353 5.76857 0.341516 -0.0404191 -2.60214 0.192345 -4.00611 0.302586 -0.330184 -0.160159
304 1 4.29008 1.6221 7.34576 -4.04083 -0.468429 4.02966 0.163222 -3.87345 -0.0104871 0.645521 0.149275
311 1 0.149724 2.85167 5.75962 -1.74976 0.28104 0.763369 5.36928 -3.85546 -0.0714723 1.16816 -0.731875
313 1 2.89377 2.99568 5.63728 0.148637 -0.416692 -0.495992 5.48827 -3.86104 -0.201419 0.337298 0.783466
305 1 5.63949 0.272746 5.76392 -2.6762 0.601797 -1.53878 5.41357 -3.81512 0.658687 0.339637 -0.57501
306 1 7.16827 1.7968 7.37745 -0.497955 1.38302 -0.554626 6.01057 -3.87444 -0.721306 -0.669541 0.168997
307 1 8.54451 0.339894 5.81182 2.06573 -1.47317 -0.377265 0.343316 -3.94797 -0.432538 -0.6326 -0.21492
315 1 5.88369 2.98404 5.67366 0.746495 3.22544 0.384377 5.48019 -3.95487 -0.733888 0.575981 -0.153203
317 1 8.5575 3.091 5.67503 0.877774 1.33708 0.284955 0.0803625 -4.07381 -0.140033 -0.0644347 0.244916
208 1 9.93587 1.5992 4.13125 -2.11946 3.54369 -4.60115 0.124799 -4.04025 0.320309 0.592535 0.173599
210 1 12.7168 1.62492 4.16189 1.93469 -2.84729 3.21644 0.363648 -3.91019 0.138746 0.017353 -0.376527
308 1 9.85407 1.73124 7.33074 -3.32365 0.641461 0.348771 0.210181 -3.94215 0.260272 -0.311957 -0.0923891
309 1 11.427 0.271834 5.80955 2.261 -0.338001 1.59023 0.163444 -3.92212 -0.135599 0.026096 -0.342457
310 1 12.8338 1.67333 7.35369 -2.12593 2.9352 -1.91821 0.178678 -3.92063 -0.483269 -0.438558 0.347856
319 1 11.2832 3.0542 5.76787 1.40137 -1.12676 -0.599603 0.111802 -3.97667 0.998828 -0.0626977 -0.00132913
212 1 1.5107 4.56417 4.13791 1.71349 1.1107 -0.37813 5.61566 -3.94747 0.156231 -0.237395 -0.200568
214 1 4.35594 4.34938 4.15749 -3.60792 0.888428 1.10906 5.11559 -3.90936 0.109865 0.413851 -0.819647
222 1 1.54559 7.23945 4.11474 2.60978 -1.28947 -2.65909 5.61122 -3.96368 -0.433764 0.026205 -0.21802
224 1 4.45542 7.31972 4.15352 2.28078 -2.16034 3.83898 0.31106 -3.90513 -0.489913 0.521083 -0.275237
312 1 1.51633 4.46751 7.3059 6.58074 -1.87872 -2.48992 0.256917 -3.93591 0.232859 -0.399309 0.131814
314 1 4.38482 4.47065 7.42988 1.38421 -0.500902 1.94911 5.9818 -3.84015 -0.254012 -0.231296 -0.166656
322 1 1.50912 7.24612 7.29101 2.77664 -2.04083 2.3912 0.114892 -3.91375 0.127037 -0.570155 -0.267315
323 1 3.05231 5.91185 5.6888 -1.31866 2.39502 -0.268551 0.269005 -3.92761 -0.529918 0.0538882 0.173363
324 1 4.3708 7.29584 7.32084 1.4459 0.563605 -1.51929 0.134026 -3.94668 -0.0433091 -0.500199 -0.385326
226 1 7.22143 7.27669 4.11774 -1.92098 2.73055 -2.00716 0.113517 -3.97219 0.376205 -0.0380914 0.490773
316 1 7.10763 4.57462 7.36191 2.31643 -3.52172 -0.258836 5.86264 -3.97645 -0.189915 -0.658375 0.180547
325 1 5.76431 5.8264 5.62665 -2.43851 2.57701 -2.10025 0.27608 -3.94957 0.324883 0.277874 0.21965
326 1 7.19795 7.24786 7.26867 -1.71798 -0.00966545 0.572563 0.277718 -4.00445 -0.518446 0.410253 -0.118569
327 1 8.55272 5.78657 5.84363 -1.12912 -0.410511 1.0442 0.571114 -3.92753 0.298961 0.221453 -0.675411
228 1 9.92162 7.27115 4.20293 0.0778168 -0.255412 1.79302 0.273483 -3.94636 -0.103631 -0.083097 0.4009
321 1 14.1448 5.82456 5.73078 4.06995 0.134137 -0.309495 0.202203 -3.92849 0.372882 0.120372 -0.467627
318 1 9.98504 4.43593 7.32499 1.75132 -4.65897 3.2673 0.0909512 -3.97898 -0.0587995 0.439529 0.00523423
320 1 12.7757 4.48205 7.33226 1.89733 -3.11783 2.82706 0.189627 -3.90556 0.353118 -0.71769 -0.0813374
328 1 10.0129 7.28399 7.19861 2.65819 -0.927283 -2.4793 4.78723 -3.92756 -0.0370371 0.0738167 0.385869
329 1 11.4291 5.87426 5.71234 1.9858 -1.38951 -0.786356 0.0771187 -3.95022 0.0480436 0.111681 -0.478912
330 1 12.8425 7.28945 7.35512 -1.97867 0.420953 -1.07444 0.0978698 -4.00839 -0.107932 0.177139 -0.122331
232 1 1.56015 10.1641 4.13249 2.12226 0.0705619 -0.681687 0.224917 -3.9874 -0.497114 -0.0508937 -0.229689