ITEM: TIMESTEP
127500
ITEM: NUMBER OF ATOMS
2000
ITEM: BOX BOUNDS pp pp pp
1.0838953229856951e-01 1.4221610467701321e+01
2.1677906459713903e-01 2.8443220935402643e+01
-3.1653132093334237e+00 6.0485313209332986e+01
ITEM: ATOMS id type x y z vx vy vz c_csym c_peratom fx fy fz
2 1 1.62332 1.66863 -1.56592 -0.282889 -3.25185 -0.636516 0.279182 -3.98614 -0.288507 -0.0912662 -0.140113
4 1 4.35789 1.61575 -1.64318 0.990702 -5.33602 3.45801 0.246648 -3.98527 0.126584 0.255442 0.33995
11 1 0.115605 3.14255 -3.1139 0.617832 -0.194419 3.50607 0.238916 -3.91388 0.161839 -0.266103 0.0748287
101 1 0.126621 0.284403 -0.0118128 -1.57173 1.46596 2.1275 0.153097 -4.0161 -0.366338 -0.0662788 -0.594871
103 1 2.85007 0.270771 0.0520066 0.287695 0.367304 -1.8153 0.246802 -3.87917 0.625804 -0.191785 0.396032
111 1 0.168447 3.08626 0.0165166 -2.2925 0.592843 0.179022 0.134391 -3.98378 0.190257 -0.362405 -0.206539
113 1 2.87763 3.13123 0.0759352 -1.71434 2.42111 -1.1208 5.83052 -3.94611 0.109232 -0.148074 0.307361
13 1 2.94284 3.10367 -3.14495 -0.0706192 -1.95523 0.774801 0.0753148 -3.90532 0.0846653 -0.016855 0.209088
6 1 7.17995 1.58532 -1.57315 -1.53139 -1.81767 -2.43971 0.232875 -3.96267 -0.302723 0.679057 0.262189
17 1 8.63608 3.25517 -3.09121 -1.24355 -0.0988133 -0.860341 5.23307 -3.95806 -0.0490561 -0.776189 -0.325085
105 1 5.90739 0.22905 0.0180705 0.812795 -1.48127 -4.16198 0.296024 -3.96404 -0.649196 -0.155878 0.133831
115 1 5.79048 3.13764 0.00228818 -0.932742 0.818202 0.0439582 0.184772 -3.94189 -0.162882 -0.588119 0.0531262
117 1 8.60233 3.08029 0.0883262 0.475293 0.415756 -1.302 0.175373 -3.93302 -0.385791 -0.0494162 -0.907629
15 1 5.86915 3.09703 -3.10416 -1.1078 -3.23994 -0.243916 0.301865 -3.88157 -0.636183 0.0761106 -0.266177
8 1 9.98472 1.71462 -1.69659 1.02028 2.64764 -1.65962 0.434388 -3.9464 -0.587537 -0.103595 0.425614
9 1 11.3244 0.287262 -3.05787 -0.628437 1.37052 0.162777 0.425304 -3.94125 0.76521 -0.412725 0.319864
10 1 12.8557 1.68831 -1.64262 -0.261261 2.58464 0.684826 0.144718 -3.92337 -0.0411753 0.0770949 -0.0493867
109 1 11.3921 0.306018 -0.013946 4.17545 -4.26001 3.01885 0.172584 -3.94324 -0.385105 -0.178271 -0.200876
119 1 11.4562 3.11085 -0.0718369 -0.877516 0.612354 1.13148 0.161726 -3.98847 -0.523492 -0.488078 -0.31932
12 1 1.52356 4.6359 -1.67531 1.18436 1.40208 1.05812 0.600882 -3.93463 0.0404122 -0.536211 0.245138
14 1 4.34915 4.42365 -1.46642 -0.761965 1.11821 -1.53086 0.280388 -3.99696 0.315369 0.250589 -0.511541
22 1 1.54026 7.32431 -1.64612 0.529166 1.27637 -0.648244 5.85303 -3.91448 0.0983394 0.0528377 0.549953
23 1 3.01689 5.92797 -3.13585 4.21453 0.286138 -0.65637 0.226974 -3.91624 -0.50092 0.0580114 -0.293795
24 1 4.35552 7.36387 -1.57128 0.718611 1.41969 0.425215 0.112403 -3.93854 -0.246295 -0.127483 -0.186979
121 1 0.132435 5.82793 0.00909309 -2.35864 3.10392 -0.471262 0.19403 -3.92805 0.453798 0.184498 0.273515
123 1 3.01618 5.86763 0.110652 1.00139 1.8653 -1.24788 0.264199 -3.96895 -0.0268345 0.243159 0.0762525
16 1 7.14135 4.5226 -1.48902 0.603539 0.154603 0.133915 0.164816 -3.96544 -0.157305 -0.2311 0.0171024
25 1 5.70759 5.92495 -3.03956 -0.827089 1.1553 2.35682 5.0839 -4.00381 0.0831741 -0.762428 -0.675134
26 1 7.1412 7.16975 -1.62411 -0.0337704 2.62343 0.778117 5.24584 -3.87266 -0.165576 0.77957 0.386506
125 1 5.74127 5.95799 0.0552883 -0.136011 -2.75282 -0.154075 0.139227 -4.06595 -0.154328 0.216301 0.512864
127 1 8.57446 5.88387 -0.0891092 -1.51658 -3.67076 0.00771245 0.401774 -3.94549 -0.0395406 -0.242882 0.622568
18 1 10.0587 4.47472 -1.56971 2.01504 1.15568 0.108705 0.220131 -3.96305 0.0671959 0.33825 0.519889
20 1 12.7939 4.54238 -1.60558 -0.022531 3.00342 -1.17168 0.0646425 -4.01637 -0.0305959 0.209478 0.0509543
28 1 10.1169 7.35391 -1.47458 1.08986 -1.21663 1.80841 0.420082 -3.93941 -0.531899 -0.541084 0.221626
29 1 11.4127 5.98723 -3.14628 1.3822 1.47477 -0.555896 0.0544739 -3.9906 -0.686206 -0.378021 -0.283748
30 1 12.8531 7.28188 -1.50487 0.362699 -0.519128 0.486825 0.138858 -3.99904 -0.132336 0.532306 -0.0387213
129 1 11.3642 5.90889 0.0629097 -0.995542 1.01394 2.2528 0.113635 -4.01598 -0.0513912 -0.383634 -0.355974
32 1 1.48279 10.1923 -1.64344 2.66336 -1.18469 0.933482 0.245077 -4.04696 0.535379 -0.604258 0.0771974
34 1 4.32744 10.195 -1.64246 -3.42019 -1.92301 1.41173 0.202223 -3.95852 0.0775703 -0.100315 0.4423
43 1 2.92107 11.628 -3.14136 2.17426 0.782241 3.50485 0.123437 -4.02746 0.00141109 -0.617139 -0.231064
133 1 2.87707 8.77788 0.0447403 -1.44944 0.975575 0.710255 0.0932743 -3.89841 0.567575 0.118134 -0.160943
141 1 0.146359 11.6297 -0.0774361 -2.20193 -7.04944 -1.51669 0.339731 -4.01358 0.185958 -0.0908911 0.580021
143 1 2.92416 11.521 0.0195211 -0.572232 1.1909 1.77002 0.168276 -4.0274 -0.234044 -0.0436753 -0.287115
36 1 7.17897 10.1662 -1.52076 0.10168 3.47717 0.174941 0.173417 -3.8833 0.0827406 0.0259493 -0.0207946
47 1 8.63625 11.4798 -3.05496 -1.46078 2.66256 0.234251 0.298757 -3.96587 -0.0272534 -0.175386 -0.537367
135 1 5.71447 8.72482 0.126257 -0.880733 0.590278 -0.109653 5.76663 -3.92445 0.179686 -0.172241 -0.351332
137 1 8.61908 8.74613 -0.0497269 -4.19951 1.4167 -2.48788 0.381475 -3.98178 -0.223895 -0.226739 -0.461417
145 1 5.78797 11.4174 0.022296 0.913579 -3.10787 0.676852 5.77923 -3.93431 -0.454856 0.589877 0.465348
147 1 8.63173 11.5707 0.132198 -2.52053 -2.66134 -2.016 0.200827 -3.97095 -0.450249 0.540448 -0.948717
37 1 8.64539 8.6808 -3.02303 -0.410704 1.96136 0.795798 0.386493 -4.02131 -0.0497844 0.257712 0.162838
41 1 14.1834 11.5242 -3.05916 -1.35835 -5.95404 3.83557 0.259271 -3.98331 -0.420821 0.258277 0.250519
131 1 14.189 8.78043 0.148615 -1.59748 2.05417 3.03081 0.430572 -3.89389 0.676402 -0.415178 -0.051885
38 1 10.1092 10.2499 -1.4475 0.647054 3.02786 -2.05404 0.501166 -3.9814 -0.453212 -0.209548 0.295644
39 1 11.3428 8.78317 -3.10921 2.80774 -0.622395 -1.00191 0.224452 -3.97654 0.172227 -0.26639 0.0235929
40 1 12.8549 10.1114 -1.42876 -1.75728 -0.634733 -0.267602 0.259892 -3.97735 -0.299834 -0.19768 -0.136214
139 1 11.4119 8.69776 0.112558 -0.425376 2.4171 -0.0430739 0.113576 -4.01954 0.193807 0.441804 -0.11281
149 1 11.4267 11.5446 0.113503 -0.904464 -0.906018 0.248794 0.18282 -3.98541 -0.170659 0.239771 -0.397376
49 1 11.351 11.4979 -3.07854 -3.94296 -1.72452 -3.57845 0.147224 -3.93444 0.0793025 0.313856 -0.246222
42 1 1.60077 12.9976 -1.66115 -0.841826 -0.173751 0.753914 0.443138 -3.96482 -0.342204 0.268014 0.284005
44 1 4.30049 12.9516 -1.67747 -1.17519 0.372824 -0.13007 6.1401 -4.03355 0.559048 -0.0884482 -0.0450868
52 1 1.58776 15.7356 -1.4146 -0.585983 1.26946 1.71295 5.23456 -3.84458 -0.297862 0.314191 -0.637525
54 1 4.38463 15.6552 -1.57487 0.269637 0.959657 1.9614 0.283323 -4.00279 -0.413918 0.137227 0.0291715
153 1 2.9946 14.2978 0.033619 -3.03426 -0.361765 3.65674 0.168538 -3.92656 -0.199568 0.0187734 0.315849
46 1 7.13899 12.8477 -1.60129 -0.042375 -0.703018 -2.37022 5.29847 -3.93642 -0.390022 0.130102 0.541352
56 1 7.08452 15.7726 -1.65983 0.19616 0.505449 -1.21975 0.269183 -4.01029 0.0197733 0.0326894 0.0156428
155 1 5.76502 14.3443 -0.0275072 -0.699273 2.50818 -2.71856 0.104921 -3.96713 0.214463 -0.321259 0.446024
157 1 8.53251 14.4644 0.0627992 1.77519 1.9958 -4.01974 5.25215 -3.96852 -0.274584 -0.0625928 0.2231
57 1 8.49816 14.3386 -3.01429 5.27468 2.46447 0.151665 0.543486 -3.86302 0.190167 0.379709 -0.63925
51 1 14.0057 14.3518 -3.16487 5.08997 3.62125 -2.07853 4.97216 -3.88075 1.24019 -0.208363 -0.179004
151 1 14.2009 14.4155 0.0426373 -4.71089 2.01634 -0.85659 0.128672 -3.88348 -0.14669 -0.23486 0.0222856
48 1 9.93985 13.0563 -1.54685 2.86016 2.34417 0.701272 5.26088 -3.95712 0.506004 -0.743256 -0.102691
50 1 12.7181 12.9904 -1.54975 0.559624 -1.36974 -0.820506 0.186196 -3.96396 0.050809 -0.513193 0.287966
58 1 9.99316 15.7186 -1.56622 -3.3381 -1.51398 5.38263 0.181345 -4.00458 0.36528 0.156998 -0.355194
60 1 12.7967 15.7437 -1.56017 1.53771 1.90327 -4.70531 0.114832 -4.00583 -0.141668 0.343543 0.769135
159 1 11.3491 14.3264 0.0964103 -0.265735 -1.65506 -3.98071 0.155462 -3.9713 0.335886 0.423917 -0.323293
62 1 1.43944 18.5161 -1.52204 0.272627 0.831543 -0.200207 0.117743 -3.92675 0.463831 0.285247 -0.334541
64 1 4.38586 18.6552 -1.51756 1.24428 1.0664 2.86252 5.39476 -3.92955 -0.259882 -0.439421 0.480498
163 1 2.94245 17.1558 -0.0788749 0.341627 2.40032 0.506019 0.417139 -3.95178 0.0951109 0.30941 0.225836
171 1 0.141802 19.9783 0.136318 -0.0590841 -1.37942 4.27312 0.179479 -4.03345 -0.147097 -0.162714 -0.0947332
173 1 2.89555 19.9823 0.0100601 0.785649 -1.23368 2.3689 0.151073 -4.00657 -0.718609 -0.0410084 0.0586271
66 1 7.24355 18.6165 -1.5184 2.75597 -4.35103 0.905848 5.69169 -4.02677 -0.496323 -0.0614975 -0.015021
67 1 8.57677 17.1461 -3.13947 -4.30079 -3.56988 1.31798 0.0496054 -4.04942 -0.0170781 -0.0786404 0.333926
165 1 5.78304 17.093 -0.0371729 1.97311 1.99329 -0.167527 0.246994 -3.95367 0.019151 0.200416 0.0348591
167 1 8.56005 17.078 -0.0940507 1.63712 1.01306 -0.622391 4.83081 -4.00328 0.0430151 -0.3658 0.642195
175 1 5.70632 20.007 0.037718 -3.42076 -2.85137 2.01629 0.13771 -3.96259 0.354523 0.200715 0.172184
177 1 8.58858 20.043 0.256805 -1.05917 0.80188 -0.731301 1.0579 -3.9341 0.0359584 -0.282735 -0.3319
75 1 5.71713 19.9361 -3.15525 -4.53949 -0.9021 2.29786 0.134987 -3.95873 0.00352447 0.192116 -0.725408
65 1 5.67248 17.193 -3.11462 -1.31158 -3.63153 -0.620776 0.342594 -3.99871 0.434793 0.156184 -0.201446
161 1 14.1852 17.2046 0.141894 -8.06951 -0.86164 0.0732044 0.226084 -4.03491 0.150701 0.309529 -0.227121
68 1 9.83757 18.5862 -1.4903 1.01621 0.95189 3.77626 5.46395 -4.00022 0.834398 0.507718 -0.278505
70 1 12.7582 18.5098 -1.53343 -2.75978 -0.241021 0.901339 0.159561 -3.8849 0.40919 0.307649 -0.169442
169 1 11.4357 17.1907 0.0264773 -0.050047 0.778513 1.36961 0.113262 -3.94967 -0.659121 -0.23571 -0.0247733
179 1 11.4548 19.9395 0.117515 0.478562 4.61523 -0.247094 0.254731 -3.98894 0.0927742 0.0302277 -0.268853
69 1 11.3235 17.1806 -3.05262 2.51938 -0.439877 2.89062 0.228791 -3.95215 0.0143124 -0.138198 -0.2005
71 1 14.189 20.001 -3.04551 -3.02828 1.71166 0.793185 0.314818 -3.85003 0.0778512 -0.660834 -0.151381
61 1 14.2026 17.0274 -3.08847 -2.79754 0.110739 5.17862 0.305796 -3.911 0.425302 0.188987 -0.123442
72 1 1.54936 21.3951 -1.62153 2.3338 -3.4761 -2.56089 0.180916 -4.03241 -0.302867 0.100343 -0.0862071
74 1 4.24289 21.3195 -1.48351 -0.775897 2.76848 -0.309503 0.384711 -4.09781 0.288878 0.194373 -0.430135
82 1 1.5098 24.075 -1.69868 -0.197856 1.54937 -4.05427 0.301952 -4.01174 0.0878146 0.444459 -0.216613
84 1 4.24694 24.1216 -1.54279 1.75243 2.83472 -4.12876 0.404545 -3.92795 0.799118 0.317402 -0.342988
181 1 0.128659 22.763 -0.0282799 -3.03311 -1.67311 -0.629939 0.0483841 -4.01301 -0.0569747 -0.614094 -0.0652047
183 1 2.89382 22.7594 -0.0733855 0.572942 -1.11899 -0.365379 0.171464 -4.05347 -0.118921 0.265861 0.68794
76 1 7.14056 21.2635 -1.57065 -0.691281 0.193514 1.05787 5.46648 -3.84965 0.117979 0.563408 0.11113
86 1 7.25436 24.2668 -1.56786 -2.43118 3.29649 -1.15762 5.80736 -3.85913 0.157663 -0.478823 0.122542
185 1 5.72509 22.8979 -0.0680008 3.67767 -2.14848 -3.35625 0.479135 -3.99302 0.206808 -0.687675 -0.061638
187 1 8.47118 22.692 0.113966 -0.732136 -0.532565 -1.73565 5.31227 -3.96467 0.120166 -0.101397 -0.0558711
78 1 9.92402 21.3232 -1.62958 -2.14879 -1.2859 1.20999 0.231966 -3.97368 0.0437485 0.117081 0.641259
80 1 12.7264 21.3466 -1.54999 -2.02506 0.894117 1.33119 0.0652927 -3.93064 0.643591 0.110546 -0.0693418
88 1 9.99398 24.1702 -1.52458 -1.34963 2.3224 -3.76156 0.212649 -3.95183 -0.16121 0.162899 0.351915
90 1 12.8226 24.1983 -1.66471 -3.32555 -1.34099 0.789537 0.186429 -3.91353 -0.316226 0.110121 0.0329251
189 1 11.404 22.6532 -0.0474699 1.1462 2.87937 3.03823 0.293403 -3.88663 0.551262 0.356809 -0.120897
92 1 1.49183 27.0716 -1.58199 -1.55268 0.823337 -0.21304 0.0697756 -3.9258 0.114908 -0.377148 0.136053
93 1 2.95679 25.6072 -3.14448 -2.98218 -1.24306 2.03838 0.177256 -3.93917 0.0247619 0.202928 -0.403195
94 1 4.31233 27.0701 -1.41435 -2.42482 -0.468398 -1.32983 0.713507 -3.92139 -0.473559 -0.110263 -0.294312
193 1 2.87926 25.4829 -0.0576777 -1.0862 0.475835 1.41936 0.42305 -3.92697 0.0993754 0.684595 -0.310763
5 1 5.72241 28.2956 -3.0798 2.69086 -0.906142 0.0342517 5.16714 -3.9633 0.0848815 0.175829 -0.304216
107 1 8.62684 28.3911 0.0560531 1.62718 -2.83475 -3.52836 0.30258 -4.02804 -0.13898 0.6088 -0.576996
96 1 7.19496 27.0059 -1.57964 3.8854 -2.09663 -3.2721 0.039519 -4.02439 0.033594 -0.0236592 0.122664
195 1 5.7699 25.6353 -0.0417419 -1.7019 -1.17403 1.74296 0.140458 -3.8941 -0.178952 0.200521 0.679725
197 1 8.65402 25.6862 0.0142744 -0.592902 -0.620959 0.00800132 0.327154 -4.02085 -0.253055 -0.642268 0.00262257
7 1 8.51249 28.4072 -3.05743 0.305773 -1.36188 3.04787 0.355671 -3.95765 -0.255256 -0.16682 -0.46837
191 1 14.1954 25.5315 -0.0319547 -0.0885336 -4.4938 -0.48509 0.20907 -3.89254 0.169185 0.0667384 -0.636802
98 1 9.85719 27.0277 -1.62658 2.60699 4.64685 0.62246 5.5813 -4.05871 0.947785 0.108746 -0.280548
100 1 12.8111 27.1397 -1.56836 0.688756 2.41483 -3.36628 0.111604 -3.94473 0.268538 -0.532641 -0.440455
199 1 11.3947 25.7747 0.0159453 -1.77748 -0.753815 0.440887 0.587545 -3.90082 0.267919 -0.434447 0.0371143
99 1 11.3966 25.6653 -3.09919 -3.11862 -0.640777 0.494149 0.142837 -3.97947 -0.0631295 -0.0613117 -0.073806
102 1 1.43258 1.58866 1.63678 7.38627 -3.29026 1.48818 0.298783 -4.02499 0.133723 -0.0283025 0.305205
104 1 4.40471 1.70471 1.5416 -2.62904 -0.431866 -2.50035 0.235621 -3.9357 -0.572954 0.109925 -0.270777
202 1 1.64591 1.56967 4.66951 2.02744 3.5456 -1.59179 4.7184 -4.02727 -0.962555 0.408213 -0.0061406
203 1 2.94499 0.259696 3.15472 -1.3304 -3.48688 0.0854903 0.130645 -4.04059 0.220994 0.410085 -0.15976
204 1 4.18458 1.68524 4.75514 -0.935437 1.48785 2.63114 4.6541 -3.98351 0.800737 -0.151723 -0.133586
213 1 2.88677 3.08084 3.11859 -2.28947 -0.845795 -1.07431 0.363898 -4.00288 -0.123286 0.158673 0.0199184
106 1 7.15632 1.63052 1.52571 0.736671 -1.16949 0.0239501 0.250868 -4.04467 0.382896 0.0860893 0.824044
205 1 5.64874 0.299036 3.01293 2.33469 0.995414 0.291621 4.73752 -3.8951 0.622907 -0.108813 0.910926
206 1 7.2548 1.68985 4.71453 -1.46106 -1.55409 1.7364 4.89383 -3.93894 -0.554226 -0.461669 -0.321725
207 1 8.58474 0.236208 3.23469 1.31666 3.04051 1.49325 0.15705 -3.95025 0.247899 -0.0987207 -0.541937
215 1 5.78167 2.95842 3.28991 -1.49422 -2.50707 3.51511 0.537093 -3.94907 -0.520675 0.136273 -0.00433998
217 1 8.60442 3.0921 3.17914 -1.80041 2.92479 -5.24384 0.123112 -4.01169 -0.376616 0.154266 0.123576
201 1 14.2143 0.277593 3.23852 -0.76465 1.66164 -3.30675 0.326981 -3.99197 -0.104572 0.177673 -0.294915
211 1 14.1953 3.09372 3.2953 0.131749 -3.47244 0.658656 0.283659 -3.92835 0.0129029 -0.750342 0.101416
108 1 9.98023 1.81548 1.65953 1.78008 -0.0382443 0.481447 5.71683 -3.88673 -0.0594605 -0.955633 0.25905
110 1 12.7567 1.63776 1.56469 0.143622 0.261967 0.471904 0.164566 -3.87232 0.251018 -0.0245859 0.512516
219 1 11.4042 3.08595 3.20525 2.96876 -3.6 -0.306264 0.066399 -3.92685 0.176233 -0.053713 0.148916
112 1 1.47335 4.44722 1.72476 -2.08488 5.53109 1.88305 0.250243 -3.93824 -0.176571 0.770171 0.103645
114 1 4.45714 4.53943 1.73782 0.408107 -1.46821 1.68028 5.26995 -4.00904 -0.148362 -0.342081 -0.280896
122 1 1.5387 7.19477 1.69024 -2.178 2.10286 -1.52883 0.268445 -3.86952 -0.587593 0.0107695 -0.238862
124 1 4.30599 7.3213 1.66641 -1.70609 -0.894295 0.386355 0.160535 -3.93698 0.0801169 0.190016 -0.124771
223 1 3.00176 5.86832 3.24672 -2.9209 -3.41332 -1.19244 0.12041 -3.9946 0.0820832 0.154629 0.0646845
116 1 7.08446 4.43511 1.66686 -0.717838 -0.661302 1.69127 5.37883 -3.97966 0.609037 0.0597577 0.222105
126 1 7.33953 7.39572 1.64477 1.37971 -3.46356 0.697126 0.501748 -3.87368 -0.753175 -0.187528 -0.48262
216 1 7.15048 4.45322 4.671 0.663868 1.20315 1.59813 0.355298 -4.03361 0.263489 0.513014 -0.164468
225 1 5.7941 6.05956 3.15737 0.299468 -1.75276 -1.18853 5.66688 -3.94064 -0.309938 -0.661328 0.178398
227 1 8.61587 5.8789 3.16427 -0.532809 -0.371899 0.126652 0.139308 -3.95624 -0.0581608 -0.32128 -0.0972602
221 1 14.1524 5.86373 3.26148 0.796103 -1.93786 -0.0692733 0.13247 -3.98873 0.150887 -0.0139882 -0.111655
118 1 10.0291 4.4796 1.62802 -2.00022 0.251406 -1.34662 0.106703 -4.03558 -0.0461807 0.324801 -0.39781
120 1 12.7727 4.51546 1.56101 -2.93314 -0.0391201 0.674702 0.120816 -3.98999 0.0874573 -0.189481 0.354899
128 1 10.0124 7.32217 1.57696 -2.7644 2.28321 3.1472 5.69364 -4.02106 -0.774235 0.11649 -0.0175466
130 1 12.7448 7.26336 1.58315 -1.8326 -3.86476 -3.53257 0.170837 -4.00425 0.639728 -0.215041 -0.0555172
218 1 9.92391 4.44006 4.78895 2.54663 2.02038 1.45237 0.0895729 -4.01148 0.330984 0.169404 0.318127
220 1 12.7806 4.44772 4.78035 -0.879614 -1.25736 1.20844 0.065453 -3.88257 -0.249982 -0.254337 0.0615672
229 1 11.2652 5.91426 3.24029 0.58398 1.74186 -1.1864 5.3154 -4.00594 0.714006 -0.0540879 0.121309
230 1 12.8446 7.35538 4.70188 2.31232 0.678649 1.21522 0.281241 -3.96333 -0.186441 -0.470572 0.394905
132 1 1.49806 10.2454 1.54147 0.926583 1.77752 2.20689 0.20817 -3.96095 -0.254989 -0.240004 0.43397
134 1 4.33421 10.2257 1.68523 -1.95039 -2.01599 -1.69927 5.49584 -3.92892 0.263866 -0.607713 0.142389
233 1 2.86938 8.7146 3.26419 -0.683116 0.194601 5.31636 0.148372 -3.8812 0.176679 -0.379941 -0.342486
234 1 4.30212 10.2221 4.78679 -0.621179 0.157015 -0.123602 5.538 -3.95384 0.525353 -0.288968 -0.251407
241 1 0.149986 11.5192 3.15886 -2.41095 0.904273 -0.0212207 0.0953645 -4.00166 -0.374394 0.19911 0.322167
243 1 2.87755 11.525 3.10351 -0.234391 0.744033 0.670144 0.260689 -3.97348 -0.0178676 -0.113656 0.484
136 1 7.34978 10.1327 1.66149 0.629619 0.98562 1.20116 5.09505 -4.02809 -0.581011 -0.15047 -0.157533
235 1 5.87066 8.81598 3.12864 0.465343 -1.43871 1.4062 0.397544 -3.97181 -0.623974 -0.754788 0.48655
237 1 8.63235 8.75913 3.36271 2.56455 0.935182 0.542097 0.398223 -4.06531 -0.13103 -0.0572695 -0.6045
245 1 5.87987 11.5851 3.1965 0.240801 -0.541356 -0.243051 0.42567 -3.96368 -0.459956 0.193489 -0.271309
247 1 8.6244 11.498 3.31119 0.432483 -3.51449 2.45946 0.206182 -4.04857 0.181279 0.194712 0.224916
231 1 14.2058 8.74973 3.15778 -0.187028 1.52542 1.17023 0.0878862 -4.00617 0.141461 -0.166142 0.0765567
138 1 9.92992 10.142 1.5911 -1.64946 -2.47072 4.24093 5.35204 -4.05806 0.858488 -0.0487906 0.482721
140 1 12.8378 10.2224 1.59969 -3.06779 0.590986 0.953237 0.20132 -4.01798 -0.593108 -0.119154 0.21258
239 1 11.364 8.67474 3.16553 1.07823 -1.10089 5.00007 0.102864 -4.00425 0.342469 0.406584 -0.344825
240 1 12.788 10.0949 4.62828 0.473313 1.12475 -2.36237 5.20891 -3.90919 0.0793032 0.528401 0.372695
249 1 11.3994 11.5636 3.29986 0.00818624 4.09037 -1.73351 0.265926 -3.99313 -0.0820577 -0.0251879 -0.0984543
142 1 1.52181 13.0509 1.70782 -1.28477 -4.17543 2.9049 0.371151 -3.99942 -0.166912 0.08025 -0.0077877
144 1 4.29805 12.8216 1.53057 1.81958 -2.20134 0.0142737 4.98694 -3.94966 0.79401 0.388204 0.0885241
152 1 1.51339 15.8576 1.68232 -0.669006 2.84052 -0.820189 5.46638 -4.06847 0.437234 -0.706159 -0.0942742
154 1 4.25725 15.7179 1.59139 2.46855 -1.35996 -1.82568 0.310576 -3.95553 0.446464 0.121423 -0.511757
242 1 1.53992 12.9165 4.75419 0.280113 3.4737 -1.1283 0.127549 -4.01993 0.12877 0.201511 -0.233443
244 1 4.24982 12.7782 4.78258 2.14938 -0.0921022 -0.749942 5.46835 -3.96241 0.422015 0.139823 -0.0985329
251 1 0.128475 14.4623 3.26396 2.68999 -0.1114 0.508103 0.233024 -3.96157 -0.291324 0.133165 -0.412968
252 1 1.63436 15.7834 4.66081 -3.12021 0.366244 0.726554 4.72261 -3.92416 -0.024289 -0.113523 0.225112
253 1 3.02926 14.3678 3.23706 0.643288 -2.70259 -2.00417 0.366154 -3.95594 -0.222702 -0.122875 0.17999
146 1 7.13468 12.9886 1.60671 1.04428 0.1527 -2.62964 0.133591 -3.84713 0.455508 -0.224099 -0.000161949
156 1 7.1141 15.8395 1.63542 -5.45427 -4.00032 2.42238 0.301348 -3.97634 0.39531 0.147815 0.202205
255 1 5.79332 14.3612 3.14869 0.949383 2.2935 -3.25327 0.18602 -3.95818 -0.445715 0.33627 0.310837
256 1 7.19239 15.8423 4.68388 -0.861153 0.781607 -0.146585 0.400502 -4.01197 0.099578 -0.283228 -0.195136
257 1 8.60857 14.4287 3.2546 -2.00567 3.54744 2.76289 0.076057 -3.9506 -0.108383 -0.351458 -0.236617
148 1 10.0789 12.8625 1.71047 2.53119 -0.204599 1.59625 5.32473 -3.9359 -0.156824 0.688616 -0.141958
150 1 12.8144 12.9078 1.67437 0.842405 -1.04171 -0.584461 0.164037 -4.03124 0.417511 0.073961 0.146001
158 1 10.0599 15.8093 1.69232 1.95172 -4.28031 -2.67566 0.267726 -3.91543 -0.224246 -0.0218588 -0.112048
160 1 12.7974 15.8078 1.58631 2.05154 2.79304 -0.0709358 0.206722 -3.96232 0.240739 -0.146955 0.676508
250 1 12.9049 12.9601 4.73209 1.45982 -1.9964 -1.75047 0.280486 -3.99908 -0.365203 -0.179927 -0.0143021
259 1 11.5154 14.2983 3.19484 2.36546 0.76793 -0.871017 0.270164 -4.00402 -0.633558 0.544515 -0.0385592
162 1 1.61205 18.4318 1.6203 0.103087 0.473685 0.329909 5.19252 -3.96913 -0.0223871 0.301993 0.353306
164 1 4.41893 18.6151 1.49943 -0.211573 3.22505 -5.20284 0.364892 -3.97107 -0.381172 -0.510916 0.0712854
262 1 1.64124 18.6991 4.77057 -1.57751 0.894061 -4.43727 5.19699 -3.99692 -0.498705 -0.46608 -0.193026
263 1 3.02324 17.1738 3.18071 -2.37006 -0.133771 0.32695 0.274775 -4.01308 -0.332881 0.163942 0.367282
271 1 0.239882 19.931 3.08358 -2.9132 -1.24747 -1.34561 0.620778 -3.9878 0.01653 0.107188 0.1193
273 1 3.06119 20.0027 3.19774 0.40391 -0.0741893 3.19324 5.57851 -3.97282 0.155729 0.147812 -0.299848
166 1 7.16241 18.5363 1.60092 0.698547 0.150344 -2.49931 0.191143 -4.00333 -0.0350692 -0.162758 0.147647
265 1 5.71847 17.1429 3.32403 -1.6126 -0.82668 -3.54668 0.46972 -3.98378 -0.484773 0.366707 -0.422428
266 1 7.25348 18.553 4.68519 1.95445 3.37989 -0.145865 5.08868 -3.90481 -0.258772 -0.220757 0.314025
267 1 8.63962 17.1234 3.11865 1.62128 1.24999 -1.44411 0.277169 -3.95599 -0.0873002 0.549027 0.527902
275 1 5.66392 19.9514 3.20438 0.0670137 -1.38317 -3.87798 5.19459 -3.97452 0.305174 0.260973 0.371338
277 1 8.52362 20.0544 3.19307 0.898333 -0.0775842 -0.479706 0.262302 -4.00032 0.485518 -0.0184313 0.226577
261 1 14.1769 17.1487 3.27858 3.22524 -0.724689 1.23685 0.362461 -4.01668 0.221726 0.24631 0.00876827
168 1 9.9888 18.5753 1.64612 -3.61858 0.233632 -1.83299 0.222961 -3.93601 0.0796815 -0.400034 0.041497
170 1 12.8038 18.6463 1.75795 0.900172 4.64776 -2.52583 0.350295 -4.01089 -0.137521 -0.317231 -0.378693
269 1 11.4148 17.1891 3.39032 1.22914 3.37173 -1.05524 0.423521 -3.97183 0.368996 0.522209 -0.989826
270 1 12.909 18.7314 4.77612 -1.75346 -1.91228 -0.862528 5.49521 -3.9411 -0.130001 -0.292114 0.135104
279 1 11.3598 20.0486 3.17 2.0114 -4.45816 0.994583 0.280634 -3.91538 -0.117366 -0.230202 0.156068
172 1 1.47279 21.4257 1.64939 2.33301 -0.225112 2.95214 0.284841 -3.9864 0.893614 0.0797026 -0.00789355
174 1 4.32705 21.4567 1.48778 -1.27528 -0.710527 -1.51037 0.289313 -3.99062 -0.180105 0.106598 0.207884
182 1 1.5749 24.1646 1.5992 -0.784188 -3.79054 -2.16947 0.0656429 -4.00181 -0.665629 -0.0293206 0.518777
184 1 4.3073 24.238 1.5542 -0.587332 0.565944 -1.32797 0.147002 -3.98596 0.0302272 -0.21769 -0.19475
272 1 1.50093 21.4332 4.69134 -1.3891 0.701157 2.48604 0.392296 -4.04212 -0.168404 -0.479621 0.663623
281 1 0.183488 22.7914 3.26076 -2.74019 0.616667 0.622568 0.16734 -3.93929 -0.192361 0.0594475 0.00680735
283 1 2.92311 22.8102 3.2795 1.18139 2.06881 4.32688 0.190282 -3.92002 0.64359 0.232528 -0.331142
176 1 7.06694 21.3141 1.67122 -3.95137 -1.5893 -1.01736 0.400135 -4.00438 -0.180362 0.170235 -0.195362
186 1 7.17879 24.1447 1.50189 2.78581 2.06017 1.88695 0.199921 -3.90237 0.265993 0.568025 -0.0560667
285 1 5.85589 22.7635 3.06217 1.31531 1.02106 -0.50399 0.572733 -3.91616 -0.814944 0.541692 0.372595
287 1 8.6565 22.7436 3.11049 2.42 3.87829 -0.705154 4.98216 -4.07387 -0.652787 0.509785 0.428208
178 1 9.99102 21.4199 1.55917 -1.13098 -1.50552 3.15931 0.258164 -4.03009 0.305686 -0.303512 0.191256
180 1 12.8404 21.4228 1.69842 -0.471497 0.0061306 0.269058 0.313561 -4.09728 0.134646 0.359601 0.408369
188 1 10.0407 24.0693 1.4479 -1.30348 -2.27273 0.479064 4.88456 -3.89037 -0.30003 0.719302 -0.314411
190 1 12.925 24.1389 1.56996 -1.55903 -2.12372 1.13416 5.64941 -3.87841 -0.835851 -0.0189879 0.0838068
280 1 12.8739 21.3633 4.70611 1.61778 1.13426 1.57654 5.68154 -4.01039 0.175879 0.321996 0.126172
289 1 11.3072 22.8471 3.19871 -3.96248 4.07387 -0.259648 0.500172 -4.00211 0.288106 0.0294605 0.129032
290 1 12.8777 24.1232 4.76491 1.06046 -1.98762 3.24564 0.241037 -3.99812 -0.252099 0.184793 0.0244095
192 1 1.54582 26.9795 1.63365 0.832332 -0.820942 0.130328 5.30239 -4.00619 0.0255583 0.467254 0.296855
194 1 4.33343 27.1078 1.57351 -1.61671 -3.20912 1.28134 0.254746 -3.96216 -0.16828 -0.328352 -0.505304
291 1 0.123486 25.6243 3.32196 -1.91934 -0.395923 -0.219087 0.410186 -3.9337 -0.243125 -0.175721 -0.455444
292 1 1.58125 27.1181 4.67618 0.521729 -0.104332 -0.21211 5.39369 -4.02749 -0.282198 -0.562497 0.0492159
293 1 3.0799 25.6086 3.16937 2.80973 1.17343 -0.298043 5.91557 -3.91399 -0.535416 0.0585354 0.656031
294 1 4.2495 27.1204 4.75709 -1.17778 2.9951 1.58236 0.255689 -3.95967 0.438065 -0.0392342 -0.437633
196 1 7.3038 27.0489 1.72212 3.37805 -2.98627 4.17109 4.93069 -3.92389 -1.02874 -0.120951 -0.779684
295 1 5.73558 25.636 3.14749 2.43808 0.681994 -1.51506 0.165971 -3.97275 0.174211 0.107018 0.39218
296 1 7.17419 27.0665 4.66551 0.309675 6.50899 -1.89168 0.261195 -3.90685 -0.24896 0.318673 0.0585024
297 1 8.56397 25.5256 3.19623 -0.134748 1.31643 -3.31811 0.359631 -3.95947 0.797063 -0.092612 0.195704
209 1 11.3537 28.3011 3.26652 -0.393176 -1.47754 0.78913 5.96461 -3.85053 0.635875 0.298373 -0.425252
198 1 9.95313 27.0869 1.5085 0.689763 -0.698924 -1.31982 5.20035 -3.84921 0.383913 -0.196152 0.587363
200 1 13.0099 27.0067 1.56503 5.30296 -0.270392 0.651806 5.57418 -3.8981 -0.710323 0.0477345 0.348099
299 1 11.357 25.6421 3.24088 0.613569 6.18239 1.53807 6.30557 -3.85728 -0.0722125 0.102605 0.140123
301 1 0.190771 0.330155 6.23883 0.5675 -0.168496 -2.46061 4.97148 -4.03198 0.114091 -0.55717 0.183391
302 1 1.52998 1.64637 8.10055 -1.42736 -3.15682 0.972455 0.317502 -3.98441 0.0483519 -0.0840671 -0.0404451
303 1 2.87995 0.257353 6.40033 0.341516 -0.0404191 -2.60214 0.188965 -4.03516 0.221392 -0.441994 -0.0795146
304 1 4.29008 1.6221 7.93399 -4.04083 -0.468429 4.02966 0.159397 -3.91758 0.0547086 0.883026 0.105897
311 1 0.149724 2.85167 6.39162 -1.74976 0.28104 0.763369 5.26191 -3.90143 -0.232336 1.34994 -0.748006
313 1 2.89377 2.99568 6.27266 0.148637 -0.416692 -0.495992 0.366205 -3.90103 0.122861 0.464897 0.430466
305 1 5.63949 0.272746 6.39581 -2.6762 0.601797 -1.53878 5.12572 -3.85923 0.480072 0.155432 -0.394597
306 1 7.16827 1.7968 7.96481 -0.497955 1.38302 -0.554626 5.86112 -3.89634 -0.57037 -0.764578 0.41313
307 1 8.54451 0.339894 6.44238 2.06573 -1.47317 -0.377265 0.334384 -3.98941 -0.310449 -0.984537 0.135397
315 1 5.88369 2.98404 6.30804 0.746495 3.22544 0.384377 5.33923 -3.98708 -0.523968 0.288604 0.193467
317 1 8.5575 3.091 6.30937 0.877774 1.33708 0.284955 0.0781468 -4.10555 -0.538269 0.186892 0.313067
208 1 9.93587 1.5992 4.80819 -2.11946 3.54369 -4.60115 0.12463 -4.07388 0.421196 0.506174 -0.00332068
210 1 12.7168 1.62492 4.83799 1.93469 -2.84729 3.21644 0.360248 -3.94463 -0.235911 -0.184567 -0.0711051
308 1 9.85407 1.73124 7.91939 -3.32365 0.641461 0.348771 0.208433 -3.97265 0.220729 -0.307979 -0.375907
309 1 11.427 0.271834 6.44018 2.261 -0.338001 1.59023 0.156979 -3.95916 -0.382486 -0.0608137 -0.0599258
310 1 12.8338 1.67333 7.9417 -2.12593 2.9352 -1.91821 0.17465 -3.95289 -0.0457069 -0.486798 0.325148
319 1 11.2832 3.0542 6.39965 1.40137 -1.12676 -0.599603 0.110547 -4.00908 0.486342 0.0221835 -0.210967
212 1 1.5107 4.56417 4.81468 1.71349 1.1107 -0.37813 5.49527 -3.99241 0.424654 -0.504923 -0.066825
214 1 4.35594 4.34938 4.83372 -3.60792 0.888428 1.10906 5.00503 -3.95348 0.225932 0.682185 -0.723588
222 1 1.54559 7.23945 4.79214 2.60978 -1.28947 -2.65909 0.15913 -4.00546 -0.0253869 -0.246125 -0.0500201
224 1 4.45542 7.31972 4.82985 2.28078 -2.16034 3.83898 0.305564 -3.94568 -0.744933 0.0563784 -0.361828
312 1 1.51633 4.46751 7.89523 6.58074 -1.87872 -2.48992 0.252404 -3.98295 0.120147 -0.365619 -0.0957838
314 1 4.38482 4.47065 8.01579 1.38421 -0.500902 1.94911 5.83237 -3.89247 -0.136642 -0.516157 -0.218223
322 1 1.50912 7.24612 7.88076 2.77664 -2.04083 2.3912 0.113118 -3.96186 -0.00504145 -0.459406 -0.0185079
323 1 3.05231 5.91185 6.32276 -1.31866 2.39502 -0.268551 0.26649 -3.96201 -0.48895 -0.27335 0.100449
324 1 4.3708 7.29584 7.90976 1.4459 0.563605 -1.51929 0.13038 -3.98608 -0.0734607 0.0111966 -0.0609027
226 1 7.22143 7.27669 4.79506 -1.92098 2.73055 -2.00716 0.112458 -4.01769 -0.0699605 -0.023777 0.464103
316 1 7.10763 4.57462 7.9497 2.31643 -3.52172 -0.258836 0.361767 -4.00808 -0.368233 -0.742141 0.284556
325 1 5.76431 5.8264 6.26233 -2.43851 2.57701 -2.10025 0.265817 -3.98068 0.147368 0.186513 0.158767
326 1 7.19795 7.24786 7.85903 -1.71798 -0.00966545 0.572563 0.269241 -4.0363 -0.618088 0.574303 -0.631279
327 1 8.55272 5.78657 6.47332 -1.12912 -0.410511 1.0442 0.548381 -3.96487 0.113597 0.499473 -0.824086
228 1 9.92162 7.27115 4.8779 0.0778168 -0.255412 1.79302 0.267648 -3.98995 -0.147936 -0.112034 -0.0113169
321 1 14.1448 5.82456 6.36358 4.06995 0.134137 -0.309495 0.200913 -3.9642 0.518652 0.260985 -0.547696
318 1 9.98504 4.43593 7.9138 1.75132 -4.65897 3.2673 0.0896325 -4.00548 -0.0620513 0.401606 0.287426
320 1 12.7757 4.48205 7.92086 1.89733 -3.11783 2.82706 0.188442 -3.93831 0.40126 -0.530705 0.19809
328 1 10.0129 7.28399 7.7909 2.65819 -0.927283 -2.4793 0.52392 -3.96794 -0.148278 -0.135506 0.481931
329 1 11.4291 5.87426 6.34565 1.9858 -1.38951 -0.786356 0.0751994 -3.98568 0.00249524 -0.0549834 -0.195106
330 1 12.8425 7.28945 7.9431 -1.97867 0.420953 -1.07444 0.0961749 -4.04563 0.277897 -0.204731 -0.00151441
232 1 1.56015 10.1641 4.8094 2.12226 0.0705619 -0.681687 0.21953 -4.01978 -0.215154 -0.268754 -0.153139