ITEM: TIMESTEP
59500
ITEM: NUMBER OF ATOMS
2000
ITEM: BOX BOUNDS pp pp pp
1.0838953229856951e-01 1.4221610467701321e+01
2.1677906459713903e-01 2.8443220935402643e+01
-1.2459151621186495e+00 5.8565915162118209e+01
ITEM: ATOMS id type x y z vx vy vz c_csym c_peratom fx fy fz
2 1 1.62332 1.66863 0.257022 -0.282889 -3.25185 -0.636516 0.277914 -4.07053 -0.631291 0.124913 -0.206604
4 1 4.35789 1.61575 0.184414 0.990702 -5.33602 3.45801 0.227223 -4.10126 0.219495 0.0125169 0.387971
11 1 0.115605 3.14255 -1.1976 0.617832 -0.194419 3.50607 0.214466 -4.02482 -0.139931 0.127439 -0.428033
101 1 0.126621 0.284403 1.7174 -1.57173 1.46596 2.1275 0.152015 -4.08461 0.125976 0.0653816 -0.386824
103 1 2.85007 0.270771 1.77737 0.287695 0.367304 -1.8153 0.240127 -3.97204 0.77785 0.332096 -0.101028
111 1 0.168447 3.08626 1.74402 -2.2925 0.592843 0.179022 0.131526 -4.10142 -0.228737 -0.182455 -0.490602
113 1 2.87763 3.13123 1.79985 -1.71434 2.42111 -1.1208 0.330647 -4.04476 0.153833 0.25472 0.260334
13 1 2.94284 3.10367 -1.22678 -0.0706192 -1.95523 0.774801 0.0727607 -3.99385 -0.122606 0.0652952 -0.214214
6 1 7.17995 1.58532 0.250223 -1.53139 -1.81767 -2.43971 0.227343 -4.06557 -0.129267 0.681531 -0.0328653
17 1 8.63608 3.25517 -1.17628 -1.24355 -0.0988133 -0.860341 5.01184 -4.03979 -0.349621 -0.718754 -0.361501
105 1 5.90739 0.22905 1.74548 0.812795 -1.48127 -4.16198 0.294355 -4.05547 -0.486596 0.016285 0.0390727
115 1 5.79048 3.13764 1.73065 -0.932742 0.818202 0.0439582 0.181111 -4.02413 0.0826154 -0.748428 -0.29532
117 1 8.60233 3.08029 1.8115 0.475293 0.415756 -1.302 0.162956 -4.03067 -0.0362695 0.0379602 -0.587656
15 1 5.86915 3.09703 -1.18845 -1.1078 -3.23994 -0.243916 0.292218 -3.97793 -0.215138 0.156805 -0.527568
8 1 9.98472 1.71462 0.134231 1.02028 2.64764 -1.65962 0.390789 -4.02809 -0.396374 -0.444047 1.31204
9 1 11.3244 0.287262 -1.14495 -0.628437 1.37052 0.162777 0.394556 -4.02481 0.71367 -0.119707 -0.621538
10 1 12.8557 1.68831 0.184947 -0.261261 2.58464 0.684826 0.134577 -4.00545 -0.0637207 0.201658 0.195448
109 1 11.3921 0.306018 1.71539 4.17545 -4.26001 3.01885 0.168214 -4.04728 -0.40043 -0.346015 -0.16985
119 1 11.4562 3.11085 1.66099 -0.877516 0.612354 1.13148 0.152951 -4.08097 -0.169977 -0.230446 -0.350281
12 1 1.52356 4.6359 0.154222 1.18436 1.40208 1.05812 0.569454 -4.02483 0.303968 -0.261082 0.217956
14 1 4.34915 4.42365 0.350519 -0.761965 1.11821 -1.53086 0.272256 -4.07645 -0.154219 0.159658 -0.340147
22 1 1.54026 7.32431 0.181652 0.529166 1.27637 -0.648244 0.244115 -4.00634 -0.0785324 -0.44339 0.950283
23 1 3.01689 5.92797 -1.21823 4.21453 0.286138 -0.65637 0.222981 -4.00888 -0.227112 0.0749222 -0.126916
24 1 4.35552 7.36387 0.251983 0.718611 1.41969 0.425215 0.107193 -4.00715 -0.199934 -0.0395127 0.293655
121 1 0.132435 5.82793 1.73704 -2.35864 3.10392 -0.471262 0.18608 -4.01088 0.0965954 0.550036 0.120237
123 1 3.01618 5.86763 1.83248 1.00139 1.8653 -1.24788 0.255496 -4.09028 -0.0354005 -0.138903 -0.208764
16 1 7.14135 4.5226 0.329281 0.603539 0.154603 0.133915 0.154489 -4.03472 -0.140503 0.0202659 -0.197292
25 1 5.70759 5.92495 -1.12774 -0.827089 1.1553 2.35682 0.32101 -4.109 -0.180935 -0.873664 -0.506817
26 1 7.1412 7.16975 0.202335 -0.0337704 2.62343 0.778117 4.99562 -3.92459 0.0467775 0.956953 0.267471
125 1 5.74127 5.95799 1.78045 -0.136011 -2.75282 -0.154075 0.13814 -4.16453 -0.165652 0.0821169 0.12198
127 1 8.57446 5.88387 1.64476 -1.51658 -3.67076 0.00771245 0.366044 -4.05984 0.0365783 0.00216683 0.505899
18 1 10.0587 4.47472 0.253459 2.01504 1.15568 0.108705 0.212002 -4.03496 -0.0745902 0.154054 0.158219
20 1 12.7939 4.54238 0.219749 -0.022531 3.00342 -1.17168 0.060247 -4.09211 -0.12421 0.00811993 0.249846
28 1 10.1169 7.35391 0.342853 1.08986 -1.21663 1.80841 0.404176 -4.00697 -0.743719 -0.418961 0.0897947
29 1 11.4127 5.98723 -1.22803 1.3822 1.47477 -0.555896 0.053716 -4.08949 -0.738814 -0.573617 -0.388734
30 1 12.8531 7.28188 0.314388 0.362699 -0.519128 0.486825 0.135624 -4.10249 -0.045226 0.410045 0.0633559
129 1 11.3642 5.90889 1.78761 -0.995542 1.01394 2.2528 0.109185 -4.08344 0.392802 -0.174741 -0.188076
32 1 1.48279 10.1923 0.184178 2.66336 -1.18469 0.933482 0.224369 -4.11823 0.428844 -0.495799 0.0439114
34 1 4.32744 10.195 0.185098 -3.42019 -1.92301 1.41173 0.188971 -4.04984 -0.132143 -0.537226 0.021855
43 1 2.92107 11.628 -1.2234 2.17426 0.782241 3.50485 0.115721 -4.08404 -0.388518 -0.688831 -0.233019
133 1 2.87707 8.77788 1.77054 -1.44944 0.975575 0.710255 0.0905922 -4.02774 0.438365 0.00650866 0.287891
141 1 0.146359 11.6297 1.65573 -2.20193 -7.04944 -1.51669 0.310128 -4.09665 0.00109888 0.0124288 0.349011
143 1 2.92416 11.521 1.74684 -0.572232 1.1909 1.77002 0.161885 -4.10411 -0.489635 -0.0361541 -0.232393
36 1 7.17897 10.1662 0.299457 0.10168 3.47717 0.174941 0.164897 -3.96748 0.254317 0.0782631 -0.0509651
47 1 8.63625 11.4798 -1.14222 -1.46078 2.66256 0.234251 0.281736 -4.04764 -0.60855 0.250212 -0.361075
135 1 5.71447 8.72482 1.84714 -0.880733 0.590278 -0.109653 0.285774 -4.04575 0.430983 -0.0365713 -0.445964
137 1 8.61908 8.74613 1.68177 -4.19951 1.4167 -2.48788 0.358231 -4.07996 -0.194696 -0.151301 -0.255566
145 1 5.78797 11.4174 1.74945 0.913579 -3.10787 0.676852 0.31426 -4.03456 -0.336713 0.514964 0.122052
147 1 8.63173 11.5707 1.85272 -2.52053 -2.66134 -2.016 0.187437 -4.06006 -0.0804997 0.429396 -0.620462
37 1 8.64539 8.6808 -1.11221 -0.410704 1.96136 0.795798 0.361718 -4.10971 -0.289789 0.212847 -0.306039
41 1 14.1834 11.5242 -1.14616 -1.35835 -5.95404 3.83557 0.241741 -4.0452 -0.0902926 0.381235 -0.249621
131 1 14.189 8.78043 1.86815 -1.59748 2.05417 3.03081 0.393711 -3.98551 0.419586 -0.48142 -0.363352
38 1 10.1092 10.2499 0.3683 0.647054 3.02786 -2.05404 0.493726 -4.05591 -0.823192 -0.795215 0.0554035
39 1 11.3428 8.78317 -1.19319 2.80774 -0.622395 -1.00191 0.223441 -4.06482 0.797839 -0.210995 0.224771
40 1 12.8549 10.1114 0.385904 -1.75728 -0.634733 -0.267602 0.240416 -4.0697 0.123799 -0.280864 -0.674263
139 1 11.4119 8.69776 1.83427 -0.425376 2.4171 -0.0430739 0.108521 -4.08051 0.173348 0.270248 -0.244471
149 1 11.4267 11.5446 1.83515 -0.904464 -0.906018 0.248794 0.174889 -4.05643 -0.226292 0.489465 -0.18723
49 1 11.351 11.4979 -1.16438 -3.94296 -1.72452 -3.57845 0.143571 -4.01994 0.229 0.30421 -0.10532
42 1 1.60077 12.9976 0.167529 -0.841826 -0.173751 0.753914 0.422918 -4.05635 -0.583986 0.097131 0.527251
44 1 4.30049 12.9516 0.1522 -1.17519 0.372824 -0.13007 0.108362 -4.12529 0.451112 0.272469 0.696548
52 1 1.58776 15.7356 0.399212 -0.585983 1.26946 1.71295 0.672088 -3.96408 -0.388601 -0.196944 -0.741627
54 1 4.38463 15.6552 0.248611 0.269637 0.959657 1.9614 0.269278 -4.06952 -0.263421 0.276248 -0.185964
153 1 2.9946 14.2978 1.76009 -3.03426 -0.361765 3.65674 0.165104 -3.99157 -0.451892 -0.145759 0.43593
46 1 7.13899 12.8477 0.223783 -0.042375 -0.703018 -2.37022 0.223441 -4.01547 -0.400993 0.597786 0.0377422
56 1 7.08452 15.7726 0.168776 0.19616 0.505449 -1.21975 0.248869 -4.06964 0.0411157 -0.524914 -0.161988
155 1 5.76502 14.3443 1.70265 -0.699273 2.50818 -2.71856 0.103136 -4.06372 0.0220644 -0.290062 0.528612
157 1 8.53251 14.4644 1.78751 1.77519 1.9958 -4.01974 5.02593 -4.07453 -0.144533 -0.487636 0.279718
57 1 8.49816 14.3386 -1.104 5.27468 2.46447 0.151665 0.491538 -3.96805 0.480845 0.165579 -1.09372
51 1 14.0057 14.3518 -1.2455 5.08997 3.62125 -2.07853 4.73276 -3.9741 1.22344 -0.24351 -0.117136
151 1 14.2009 14.4155 1.76856 -4.71089 2.01634 -0.85659 0.121394 -3.98391 -0.221979 -0.547792 0.173802
48 1 9.93985 13.0563 0.27494 2.86016 2.34417 0.701272 0.26969 -4.05194 0.332325 -0.435418 -0.0779547
50 1 12.7181 12.9904 0.272213 0.559624 -1.36974 -0.820506 0.176671 -4.05731 -0.21649 -0.33132 0.0982162
58 1 9.99316 15.7186 0.256732 -3.3381 -1.51398 5.38263 0.169864 -4.06684 0.021279 0.217683 0.145198
60 1 12.7967 15.7437 0.262419 1.53771 1.90327 -4.70531 0.111443 -4.05842 -0.275622 0.0122813 0.439922
159 1 11.3491 14.3264 1.81909 -0.265735 -1.65506 -3.98071 0.151365 -4.05582 0.268092 0.0356025 -0.492506
62 1 1.43944 18.5161 0.298256 0.272627 0.831543 -0.200207 0.115794 -4.01478 0.0108028 0.513565 -0.51819
64 1 4.38586 18.6552 0.302459 1.24428 1.0664 2.86252 5.11788 -4.00894 -0.0924916 -0.993287 -0.298003
163 1 2.94245 17.1558 1.65438 0.341627 2.40032 0.506019 0.387225 -4.02086 0.659883 0.381577 0.38661
171 1 0.141802 19.9783 1.85659 -0.0590841 -1.37942 4.27312 0.168566 -4.11093 -0.518876 0.198828 -0.763546
173 1 2.89555 19.9823 1.73795 0.785649 -1.23368 2.3689 0.145309 -4.09465 -0.241606 -0.385646 0.174018
66 1 7.24355 18.6165 0.301677 2.75597 -4.35103 0.905848 5.37422 -4.13885 -0.567118 -0.0077103 0.0187515
67 1 8.57677 17.1461 -1.22163 -4.30079 -3.56988 1.31798 0.0495454 -4.13136 -0.382122 -0.362945 0.267886
165 1 5.78304 17.093 1.69357 1.97311 1.99329 -0.167527 0.238087 -4.03081 -0.24266 -0.0175498 0.436345
167 1 8.56005 17.078 1.64012 1.63712 1.01306 -0.622391 4.61698 -4.07315 0.334364 0.0789209 0.474426
175 1 5.70632 20.007 1.76394 -3.42076 -2.85137 2.01629 0.132957 -4.03975 0.117078 -0.077903 -0.00677546
177 1 8.58858 20.043 1.96981 -1.05917 0.80188 -0.731301 0.961937 -3.99233 0.0687513 -0.636307 -0.968977
75 1 5.71713 19.9361 -1.23646 -4.53949 -0.9021 2.29786 0.128047 -4.05119 -0.307608 -0.0613392 -0.619402
65 1 5.67248 17.193 -1.19828 -1.31158 -3.63153 -0.620776 0.329692 -4.09154 0.456835 -0.244521 -0.121883
161 1 14.1852 17.2046 1.86183 -8.06951 -0.86164 0.0732044 0.212053 -4.11348 -0.225 -0.202557 -0.546182
68 1 9.83757 18.5862 0.328073 1.01621 0.95189 3.77626 0.505441 -4.09632 0.554284 0.437373 -0.172242
70 1 12.7582 18.5098 0.287549 -2.75978 -0.241021 0.901339 0.155502 -3.98332 0.509808 0.694312 -0.504114
169 1 11.4357 17.1907 1.75338 -0.050047 0.778513 1.36961 0.109352 -4.04491 -0.244935 0.240805 0.0400764
179 1 11.4548 19.9395 1.83892 0.478562 4.61523 -0.247094 0.245935 -4.07474 -0.184968 -0.0715963 -0.52431
69 1 11.3235 17.1806 -1.14001 2.51938 -0.439877 2.89062 0.211274 -4.05433 0.168996 -0.223547 -0.430354
71 1 14.189 20.001 -1.13334 -3.02828 1.71166 0.793185 0.297936 -3.93575 -0.162222 -0.690136 -0.160017
61 1 14.2026 17.0274 -1.1737 -2.79754 0.110739 5.17862 0.290768 -4.00338 0.231564 -0.0163376 0.362243
72 1 1.54936 21.3951 0.204766 2.3338 -3.4761 -2.56089 0.17319 -4.11743 -0.204866 0.0198263 -0.00272901
74 1 4.24289 21.3195 0.334462 -0.775897 2.76848 -0.309503 0.35885 -4.1608 0.448806 0.140252 -0.439241
82 1 1.5098 24.075 0.13226 -0.197856 1.54937 -4.05427 0.287809 -4.09762 -0.218615 0.627424 -0.1804
84 1 4.24694 24.1216 0.278753 1.75243 2.83472 -4.12876 0.389847 -4.00314 0.887483 0.56877 -0.136569
181 1 0.128659 22.763 1.70192 -3.03311 -1.67311 -0.629939 0.046502 -4.07343 0.097722 -0.466385 -0.469526
183 1 2.89382 22.7594 1.65954 0.572942 -1.11899 -0.365379 0.154675 -4.10276 0.0496769 -0.0184649 0.307775
76 1 7.14056 21.2635 0.252574 -0.691281 0.193514 1.05787 0.365278 -3.96712 0.0930395 0.855061 -0.218728
86 1 7.25436 24.2668 0.255197 -2.43118 3.29649 -1.15762 5.47442 -3.94538 -0.0939482 -0.468494 -0.112073
185 1 5.72509 22.8979 1.6646 3.67767 -2.14848 -3.35625 0.466128 -4.06744 0.324279 -0.86083 0.118517
187 1 8.47118 22.692 1.83559 -0.732136 -0.532565 -1.73565 0.575557 -4.05905 0.141903 -0.168669 -0.588397
78 1 9.92402 21.3232 0.197197 -2.14879 -1.2859 1.20999 0.216455 -4.07042 0.168826 0.217786 0.522591
80 1 12.7264 21.3466 0.271988 -2.02506 0.894117 1.33119 0.063683 -4.01707 1.04076 -0.119157 -0.390451
88 1 9.99398 24.1702 0.295868 -1.34963 2.3224 -3.76156 0.197852 -4.07991 -0.368601 0.187541 0.0423781
90 1 12.8226 24.1983 0.164191 -3.32555 -1.34099 0.789537 0.177981 -4.02512 -0.585403 -0.0410336 0.771222
189 1 11.404 22.6532 1.68389 1.1462 2.87937 3.03823 0.284786 -3.97814 0.0978812 0.67735 0.222648
92 1 1.49183 27.0716 0.241919 -1.55268 0.823337 -0.21304 0.0685158 -4.03483 -0.370646 -0.589822 -0.0295331
93 1 2.95679 25.6072 -1.22634 -2.98218 -1.24306 2.03838 0.16538 -4.06359 0.0895861 0.00463641 -0.203627
94 1 4.31233 27.0701 0.399444 -2.42482 -0.468398 -1.32983 0.654062 -3.99149 -0.465719 0.161363 -0.487766
193 1 2.87926 25.4829 1.6743 -1.0862 0.475835 1.41936 0.406624 -4.00112 -0.0219494 0.723801 -0.231963
5 1 5.72241 28.2956 -1.16556 2.69086 -0.906142 0.0342517 0.564414 -4.04373 0.0048094 0.208837 -0.542206
107 1 8.62684 28.3911 1.78117 1.62718 -2.83475 -3.52836 0.292622 -4.1019 -0.149237 0.743392 -0.58253
96 1 7.19496 27.0059 0.244129 3.8854 -2.09663 -3.2721 0.0374492 -4.09185 -0.472878 0.256287 0.214792
195 1 5.7699 25.6353 1.68927 -1.7019 -1.17403 1.74296 0.127633 -4.02624 0.107728 0.275743 0.397747
197 1 8.65402 25.6862 1.74191 -0.592902 -0.620959 0.00800132 0.317157 -4.0917 -0.129005 -0.611369 0.249908
7 1 8.51249 28.4072 -1.14454 0.305773 -1.36188 3.04787 0.329235 -4.03004 0.173264 -0.020972 -0.8142
191 1 14.1954 25.5315 1.69847 -0.0885336 -4.4938 -0.48509 0.207009 -3.97284 0.456266 0.354571 -0.716594
98 1 9.85719 27.0277 0.200018 2.60699 4.64685 0.62246 0.391956 -4.13487 0.505246 -0.202463 0.123956
100 1 12.8111 27.1397 0.254726 0.688756 2.41483 -3.36628 0.109931 -4.04317 0.336314 -0.338227 -0.00169956
199 1 11.3947 25.7747 1.74348 -1.77748 -0.753815 0.440887 0.579766 -3.99758 0.485516 -0.251686 0.390298
99 1 11.3966 25.6653 -1.18378 -3.11862 -0.640777 0.494149 0.137585 -4.06718 0.136016 -0.299734 0.03729
102 1 1.43258 1.58866 3.26656 7.38627 -3.29026 1.48818 0.293472 -4.08429 0.319158 -0.159535 -0.0440209
104 1 4.40471 1.70471 3.17712 -2.62904 -0.431866 -2.50035 0.226816 -4.05864 -0.580196 0.254402 -0.349122
202 1 1.64591 1.56967 6.11639 2.02744 3.5456 -1.59179 4.48828 -4.06088 -1.09383 0.705285 0.173741
203 1 2.94499 0.259696 4.69296 -1.3304 -3.48688 0.0854903 0.127575 -4.09699 0.236912 0.0922454 -0.249844
204 1 4.18458 1.68524 6.19686 -0.935437 1.48785 2.63114 4.39819 -4.05243 1.04476 -0.494483 -0.34305
213 1 2.88677 3.08084 4.65901 -2.28947 -0.845795 -1.07431 0.345592 -4.09298 -0.0115201 -0.260882 0.00330702
106 1 7.15632 1.63052 3.16219 0.736671 -1.16949 0.0239501 0.233914 -4.12308 0.780761 0.10907 0.804417
205 1 5.64874 0.299036 4.55972 2.33469 0.995414 0.291621 0.556991 -3.98162 0.972152 -0.347148 1.08967
206 1 7.2548 1.68985 6.15869 -1.46106 -1.55409 1.7364 0.35178 -4.01815 -0.397692 -0.636496 -0.276686
207 1 8.58474 0.236208 4.7681 1.31666 3.04051 1.49325 0.145794 -4.03191 0.0523506 0.237884 -1.15897
215 1 5.78167 2.95842 4.81999 -1.49422 -2.50707 3.51511 0.510821 -4.03684 -0.517575 0.545647 -0.12238
217 1 8.60442 3.0921 4.7159 -1.80041 2.92479 -5.24384 0.121175 -4.07526 -0.314393 -0.437611 -0.00842005
201 1 14.2143 0.277593 4.7717 -0.76465 1.66164 -3.30675 0.313565 -4.08205 -0.258764 -0.160821 0.056632
211 1 14.1953 3.09372 4.82505 0.131749 -3.47244 0.658656 0.259664 -4.04484 0.0196315 -0.576859 -0.0569785
108 1 9.98023 1.81548 3.28794 1.78008 -0.0382443 0.481447 5.42656 -3.98356 0.0214233 -0.839836 -0.0906194
110 1 12.7567 1.63776 3.19882 0.143622 0.261967 0.471904 0.158459 -3.9681 0.103629 0.23118 0.372141
208 1 9.93587 1.5992 6.24671 -2.11946 3.54369 -4.60115 0.124285 -4.15679 0.604611 0.13338 -0.305187
210 1 12.7168 1.62492 6.27471 1.93469 -2.84729 3.21644 0.353338 -4.02488 -0.139604 -0.181494 -0.695832
219 1 11.4042 3.08595 4.74043 2.96876 -3.6 -0.306264 0.06536 -4.01623 -0.353597 -0.13024 0.204604
112 1 1.47335 4.44722 3.34924 -2.08488 5.53109 1.88305 0.232373 -4.01145 0.106715 0.779956 0.00663808
114 1 4.45714 4.53943 3.36151 0.408107 -1.46821 1.68028 0.435157 -4.0832 -0.315345 -0.265381 -0.412996
122 1 1.5387 7.19477 3.3168 -2.178 2.10286 -1.52883 0.264962 -3.96924 -0.615465 0.0871225 -0.41714
124 1 4.30599 7.3213 3.29441 -1.70609 -0.894295 0.386355 0.157304 -3.98275 -0.0134647 0.352826 -0.152086
212 1 1.5107 4.56417 6.2528 1.71349 1.1107 -0.37813 0.379303 -4.08321 -0.100338 -0.743849 0.229616
214 1 4.35594 4.34938 6.27069 -3.60792 0.888428 1.10906 4.78038 -4.06499 -0.0351202 0.366439 -0.766467
222 1 1.54559 7.23945 6.23162 2.60978 -1.28947 -2.65909 0.156198 -4.09475 -0.276371 -0.416921 -0.0143326
223 1 3.00176 5.86832 4.7794 -2.9209 -3.41332 -1.19244 0.11969 -4.089 -0.308189 0.00593357 -0.200653
224 1 4.45542 7.31972 6.26706 2.28078 -2.16034 3.83898 0.294397 -4.03389 -0.534992 0.150483 -0.374873
116 1 7.08446 4.43511 3.29483 -0.717838 -0.661302 1.69127 5.10762 -4.08244 0.605689 0.694587 0.0974019
126 1 7.33953 7.39572 3.27407 1.37971 -3.46356 0.697126 0.488635 -3.97325 -0.460207 -0.21584 -0.0365582
216 1 7.15048 4.45322 6.11778 0.663868 1.20315 1.59813 0.329575 -4.11911 0.172138 0.696891 0.32902
225 1 5.7941 6.05956 4.69544 0.299468 -1.75276 -1.18853 0.61793 -4.03211 -0.153675 -0.651668 0.411023
226 1 7.22143 7.27669 6.23436 -1.92098 2.73055 -2.00716 0.110307 -4.1195 0.139315 0.420412 0.387542
227 1 8.61587 5.8789 4.70193 -0.532809 -0.371899 0.126652 0.13074 -4.03428 -0.210661 -0.238378 -0.232114
221 1 14.1524 5.86373 4.79327 0.796103 -1.93786 -0.0692733 0.12586 -4.06224 0.0255975 0.175644 -0.669455
118 1 10.0291 4.4796 3.25833 -2.00022 0.251406 -1.34662 0.100643 -4.11374 -0.22793 -0.00729928 -0.382826
120 1 12.7727 4.51546 3.19536 -2.93314 -0.0391201 0.674702 0.110632 -4.08819 0.234758 -0.341991 0.518674
128 1 10.0124 7.32217 3.21035 -2.7644 2.28321 3.1472 0.12581 -4.0956 -0.70636 -0.118958 -0.0634697
130 1 12.7448 7.26336 3.21617 -1.8326 -3.86476 -3.53257 0.159639 -4.09797 0.785375 0.0120226 0.173142
218 1 9.92391 4.44006 6.22862 2.54663 2.02038 1.45237 0.0879413 -4.10491 0.475451 -0.088045 0.166706
220 1 12.7806 4.44772 6.22054 -0.879614 -1.25736 1.20844 0.0629184 -3.98283 0.0786965 -0.292112 0.434681
228 1 9.92162 7.27115 6.31221 0.0778168 -0.255412 1.79302 0.25579 -4.0804 -0.0491508 -0.00860975 -0.0162347
229 1 11.2652 5.91426 4.77336 0.58398 1.74186 -1.1864 0.299115 -4.08163 0.90242 -0.244271 0.346243
230 1 12.8446 7.35538 6.1468 2.31232 0.678649 1.21522 0.273715 -4.04804 -0.310426 -0.89737 0.202838
132 1 1.49806 10.2454 3.177 0.926583 1.77752 2.20689 0.200816 -4.02718 0.0146869 -0.646067 0.527832
134 1 4.33421 10.2257 3.31209 -1.95039 -2.01599 -1.69927 0.275266 -4.01625 -0.00828687 -0.744573 -0.0400331
232 1 1.56015 10.1641 6.24784 2.12226 0.0705619 -0.681687 0.208583 -4.09446 -0.196068 0.0786794 -0.167252
233 1 2.86938 8.7146 4.79583 -0.683116 0.194601 5.31636 0.144549 -4.01681 0.265992 -0.153839 -0.440603
234 1 4.30212 10.2221 6.22659 -0.621179 0.157015 -0.123602 5.26718 -4.06694 0.41103 -0.655951 0.330129
241 1 0.149986 11.5192 4.69685 -2.41095 0.904273 -0.0212207 0.091718 -4.06558 0.0428284 0.105584 -0.148029
243 1 2.87755 11.525 4.64483 -0.234391 0.744033 0.670144 0.241024 -4.03659 -0.305766 -0.25721 0.22638
136 1 7.34978 10.1327 3.28978 0.629619 0.98562 1.20116 4.86229 -4.08856 -0.862207 0.465772 -0.380239
235 1 5.87066 8.81598 4.66845 0.465343 -1.43871 1.4062 0.375849 -4.06564 -0.68433 -0.361515 0.402328
236 1 7.13391 10.1574 6.25381 2.36863 -0.429749 -0.449581 0.258863 -4.11555 0.0215273 0.0185457 0.0701391
237 1 8.63235 8.75913 4.8884 2.56455 0.935182 0.542097 0.359505 -4.12353 0.161028 0.255982 -0.549616
245 1 5.87987 11.5851 4.73221 0.240801 -0.541356 -0.243051 0.423357 -4.05347 -0.439116 -0.378982 -0.467437
247 1 8.6244 11.498 4.83999 0.432483 -3.51449 2.45946 0.193818 -4.12169 0.00234468 0.583932 0.186148
231 1 14.2058 8.74973 4.69583 -0.187028 1.52542 1.17023 0.0859012 -4.10922 0.679621 -0.0487296 0.0405854
138 1 9.92992 10.142 3.22364 -1.64946 -2.47072 4.24093 5.10189 -4.1389 1.10399 -0.512931 0.608068
140 1 12.8378 10.2224 3.23171 -3.06779 0.590986 0.953237 0.191401 -4.11712 -0.787397 -0.296886 0.12358
238 1 10.0462 10.0877 6.25313 4.00462 1.03455 -0.403308 0.140256 -4.02254 0.2783 0.40922 0.280518
239 1 11.364 8.67474 4.70311 1.07823 -1.10089 5.00007 0.0978033 -4.09478 0.271169 0.255464 -0.309295
240 1 12.788 10.0949 6.07765 0.473313 1.12475 -2.36237 0.370504 -3.98423 0.531821 0.56428 1.13816
249 1 11.3994 11.5636 4.82934 0.00818624 4.09037 -1.73351 0.244423 -4.07636 -0.122908 -0.155508 0.000131713
142 1 1.52181 13.0509 3.33332 -1.28477 -4.17543 2.9049 0.34712 -4.10963 -0.194202 -0.0854222 -0.201277
144 1 4.29805 12.8216 3.16675 1.81958 -2.20134 0.0142737 4.7682 -4.04708 0.593372 0.599184 0.0870864
152 1 1.51339 15.8576 3.30935 -0.669006 2.84052 -0.820189 5.19011 -4.15065 0.458265 -0.677149 -0.27518
154 1 4.25725 15.7179 3.22391 2.46855 -1.35996 -1.82568 0.30537 -4.048 0.723351 0.320208 -0.385135
242 1 1.53992 12.9165 6.19596 0.280113 3.4737 -1.1283 0.118484 -4.12726 0.0644423 0.369909 0.388221
244 1 4.24982 12.7782 6.22264 2.14938 -0.0921022 -0.749942 5.17882 -4.07199 0.220209 0.516148 -0.394688
251 1 0.128475 14.4623 4.79561 2.68999 -0.1114 0.508103 0.223061 -4.0486 -0.33554 -0.396315 -0.0892628
252 1 1.63436 15.7834 6.10822 -3.12021 0.366244 0.726554 0.462415 -4.00462 -0.0444405 -0.0599235 0.41517
253 1 3.02926 14.3678 4.77033 0.643288 -2.70259 -2.00417 0.353281 -4.02071 0.168373 -0.200623 0.0606098
254 1 4.32401 15.7314 6.31649 -3.29084 -1.84392 -1.68306 0.274133 -4.02355 -0.333688 0.117228 -0.154096
146 1 7.13468 12.9886 3.2383 1.04428 0.1527 -2.62964 0.131763 -3.92311 0.457772 -0.16642 0.335236
156 1 7.1141 15.8395 3.26528 -5.45427 -4.00032 2.42238 0.290195 -4.04382 0.354821 -0.0221285 0.0347996
246 1 7.17912 12.9922 6.26736 0.991656 -1.68864 -0.448699 0.136851 -4.01682 0.300578 -0.442313 0.00784966
255 1 5.79332 14.3612 4.68729 0.949383 2.2935 -3.25327 0.177407 -4.08415 -0.37625 0.239758 0.178067
256 1 7.19239 15.8423 6.12989 -0.861153 0.781607 -0.146585 0.373555 -4.05594 0.528434 -0.978962 0.0477226
257 1 8.60857 14.4287 4.78681 -2.00567 3.54744 2.76289 0.0729678 -4.05665 -0.668499 -0.642734 -0.560075
148 1 10.0789 12.8625 3.33581 2.53119 -0.204599 1.59625 0.297394 -4.02088 -0.800516 0.323455 0.0428853
150 1 12.8144 12.9078 3.30188 0.842405 -1.04171 -0.584461 0.156655 -4.12035 0.627131 0.193239 -0.0605425
158 1 10.0599 15.8093 3.31875 1.95172 -4.28031 -2.67566 0.253134 -4.0283 -0.0303764 -0.32681 -0.22008
160 1 12.7974 15.8078 3.21914 2.05154 2.79304 -0.0709358 0.189229 -4.06444 0.052279 -0.387801 0.785633
248 1 10.001 13.0598 6.27234 1.15591 3.93167 -3.97146 0.326933 -4.03064 0.343199 0.101947 -0.106212
250 1 12.9049 12.9601 6.17519 1.45982 -1.9964 -1.75047 0.258246 -4.0828 -0.163512 -0.00561388 -0.00867963
258 1 10.0849 15.781 6.23425 3.15439 -2.57917 -3.22034 5.30154 -4.11138 -0.515739 -0.146722 0.102931
259 1 11.5154 14.2983 4.73066 2.36546 0.76793 -0.871017 0.266693 -4.07727 -0.367421 0.375469 0.340017
260 1 12.7221 15.7462 6.262 1.07372 0.97037 -2.70378 0.528554 -4.00161 0.939631 0.229977 -0.0493629
162 1 1.61205 18.4318 3.25107 0.103087 0.473685 0.329909 4.90465 -4.0619 -0.208226 0.513188 0.159722
164 1 4.41893 18.6151 3.1375 -0.211573 3.22505 -5.20284 0.341171 -4.0457 -0.637275 -0.643207 0.505705
262 1 1.64124 18.6991 6.21135 -1.57751 0.894061 -4.43727 0.343375 -4.09256 -0.542481 -0.575501 0.0310223
263 1 3.02324 17.1738 4.71738 -2.37006 -0.133771 0.32695 0.26071 -4.08587 0.058034 0.11764 0.474016
264 1 4.25569 18.5351 6.35517 2.99979 1.41468 -0.253245 0.47998 -4.05089 0.641783 0.20227 -0.502285
271 1 0.239882 19.931 4.6261 -2.9132 -1.24747 -1.34561 0.59003 -4.05773 -0.0931677 -0.126357 0.28063
273 1 3.06119 20.0027 4.73338 0.40391 -0.0741893 3.19324 0.357145 -4.07821 -0.181536 0.144897 -0.289791
166 1 7.16241 18.5363 3.23286 0.698547 0.150344 -2.49931 0.172872 -4.13047 -0.142696 -0.168842 -0.318242
265 1 5.71847 17.1429 4.85205 -1.6126 -0.82668 -3.54668 0.424209 -4.07872 -0.468017 0.131653 -0.132728
266 1 7.25348 18.553 6.13113 1.95445 3.37989 -0.145865 0.541366 -3.99923 -0.452654 -0.136204 0.0111844
267 1 8.63962 17.1234 4.65906 1.62128 1.24999 -1.44411 0.260752 -4.03242 -0.0887347 0.572276 0.318953
275 1 5.66392 19.9514 4.73962 0.0670137 -1.38317 -3.87798 0.299662 -4.07111 0.333651 0.106171 0.56766
277 1 8.52362 20.0544 4.72899 0.898333 -0.0775842 -0.479706 0.253014 -4.10374 0.481686 0.406982 0.00120414
261 1 14.1769 17.1487 4.80935 3.22524 -0.724689 1.23685 0.352911 -4.10366 0.159202 0.182356 0.046176
168 1 9.9888 18.5753 3.27534 -3.61858 0.233632 -1.83299 0.201769 -4.0384 -0.456725 -0.735342 -0.0955335
170 1 12.8038 18.6463 3.38043 0.900172 4.64776 -2.52583 0.324465 -4.07859 0.151581 -0.339208 -0.0288928
268 1 9.90461 18.5053 6.3299 4.57801 -0.241298 0.328247 4.49624 -4.02405 0.328743 0.280466 -0.407448
269 1 11.4148 17.1891 4.91434 1.22914 3.37173 -1.05524 0.384445 -4.04278 0.585977 0.188314 -0.722417
270 1 12.909 18.7314 6.21657 -1.75346 -1.91228 -0.862528 0.529765 -4.04668 -0.539488 -0.111603 0.385616
279 1 11.3598 20.0486 4.70731 2.0114 -4.45816 0.994583 0.260879 -4.02223 -0.582393 -0.0942136 0.22108
172 1 1.47279 21.4257 3.27841 2.33301 -0.225112 2.95214 0.271448 -4.07366 0.612918 0.240275 -0.233236
174 1 4.32705 21.4567 3.12655 -1.27528 -0.710527 -1.51037 0.268957 -4.07778 -0.0984227 -0.267408 0.332883
182 1 1.5749 24.1646 3.23125 -0.784188 -3.79054 -2.16947 0.0646789 -4.11124 -0.67332 0.0395047 0.470486
184 1 4.3073 24.238 3.18896 -0.587332 0.565944 -1.32797 0.143638 -4.06179 0.454258 -0.621893 -0.174404
272 1 1.50093 21.4332 6.1369 -1.3891 0.701157 2.48604 0.36507 -4.11459 0.166568 -0.0398857 0.789443
274 1 4.4257 21.4489 6.29707 2.59471 -0.91757 -0.537123 0.261218 -4.01301 0.164243 -0.292225 -0.682533
281 1 0.183488 22.7914 4.7926 -2.74019 0.616667 0.622568 0.152349 -3.9964 -0.471945 0.140766 -0.690429
282 1 1.52472 24.1909 6.30493 -1.23117 0.365724 -0.651941 0.160176 -4.07756 0.76019 0.215372 -0.788728
283 1 2.92311 22.8102 4.81021 1.18139 2.06881 4.32688 0.172301 -4.01802 0.595926 -0.0605398 -0.185219
284 1 4.42474 24.2671 6.27281 -2.88227 1.45219 3.65201 0.163734 -4.00961 0.102463 -0.228212 -0.222216
176 1 7.06694 21.3141 3.29892 -3.95137 -1.5893 -1.01736 0.390062 -4.05401 0.272678 0.109555 -0.852036
186 1 7.17879 24.1447 3.13981 2.78581 2.06017 1.88695 0.189231 -3.98132 -0.119647 0.637996 -0.064464
276 1 7.10716 21.4372 6.28624 2.60993 -1.18025 -2.38511 0.24047 -4.03971 0.32007 -0.154265 -0.0767539
285 1 5.85589 22.7635 4.60598 1.31531 1.02106 -0.50399 0.535343 -4.00564 -1.10878 1.16576 0.820849
286 1 7.16944 24.2408 6.26683 1.08031 -1.08147 0.839848 0.277482 -4.03079 -0.0148713 -0.359503 -0.480833
287 1 8.6565 22.7436 4.65139 2.42 3.87829 -0.705154 4.75091 -4.18733 -0.549352 0.347461 0.649731
178 1 9.99102 21.4199 3.19364 -1.13098 -1.50552 3.15931 0.240163 -4.07292 0.600325 -0.214266 -0.0214849
180 1 12.8404 21.4228 3.32448 -0.471497 0.0061306 0.269058 0.290239 -4.18187 0.123532 0.40693 0.409022
188 1 10.0407 24.0693 3.08907 -1.30348 -2.27273 0.479064 4.65504 -3.96398 -0.334771 1.11992 -0.178444
190 1 12.925 24.1389 3.20378 -1.55903 -2.12372 1.13416 0.399926 -3.98467 -0.662608 0.475507 0.130581
278 1 9.94955 21.4304 6.33665 1.38589 -0.978514 1.96516 0.321318 -3.98872 -0.0122061 -0.885085 -0.554086
280 1 12.8739 21.3633 6.15078 1.61778 1.13426 1.57654 0.290252 -4.12897 0.0814532 0.342508 -0.0827309
288 1 10.0194 24.1956 6.31745 2.68269 2.22443 1.78439 0.381901 -4.00801 -0.52694 0.0919839 -0.0458394
289 1 11.3072 22.8471 4.73429 -3.96248 4.07387 -0.259648 0.487947 -4.09193 0.264608 -0.331605 0.013579
290 1 12.8777 24.1232 6.20604 1.06046 -1.98762 3.24564 0.236303 -4.0894 -0.170324 0.274514 0.00567853
192 1 1.54582 26.9795 3.26362 0.832332 -0.820942 0.130328 0.145695 -4.13716 -0.346487 -0.0395014 -0.0199618
194 1 4.33343 27.1078 3.20711 -1.61671 -3.20912 1.28134 0.249795 -4.05661 -0.293232 -0.656617 -0.578737
291 1 0.123486 25.6243 4.85011 -1.91934 -0.395923 -0.219087 0.374177 -3.99841 0.0322667 -0.256837 -0.35994
292 1 1.58125 27.1181 6.12265 0.521729 -0.104332 -0.21211 0.263281 -4.12166 -0.283781 -0.356368 0.0627347
293 1 3.0799 25.6086 4.70672 2.80973 1.17343 -0.298043 0.37983 -3.99409 -0.623401 0.0729931 0.73421
294 1 4.2495 27.1204 6.19869 -1.17778 2.9951 1.58236 0.251052 -4.04185 0.856298 -0.0519615 0.0102392
196 1 7.3038 27.0489 3.34675 3.37805 -2.98627 4.17109 4.76164 -4.00736 -0.858229 -0.0425411 -0.470776
295 1 5.73558 25.636 4.68616 2.43808 0.681994 -1.51506 0.155691 -4.08382 0.510568 -0.0605661 0.448484
296 1 7.17419 27.0665 6.11263 0.309675 6.50899 -1.89168 0.243233 -3.97103 -0.0032998 0.77017 -0.132705
297 1 8.56397 25.5256 4.73196 -0.134748 1.31643 -3.31811 0.344547 -4.09042 0.905648 0.263216 -0.376185
209 1 11.3537 28.3011 4.79801 -0.393176 -1.47754 0.78913 5.67604 -3.96236 0.572071 0.700315 -0.879094
198 1 9.95313 27.0869 3.14602 0.689763 -0.698924 -1.31982 0.299211 -3.90982 0.158311 -0.367233 0.879189
200 1 13.0099 27.0067 3.19914 5.30296 -0.270392 0.651806 5.31355 -3.98979 -0.603637 -0.0799778 0.565876
298 1 9.9521 27.1594 6.27544 1.28797 -2.74568 -4.13594 0.325531 -4.05399 -0.466468 -0.566512 0.516016
299 1 11.357 25.6421 4.77392 0.613569 6.18239 1.53807 5.97097 -3.99571 0.00655089 -0.346396 -0.487399
300 1 12.9347 27.0657 6.26779 -0.577292 -1.28953 -3.83829 0.297137 -4.06459 -0.701787 -0.126858 0.411242
301 1 0.190771 0.330155 7.59106 0.5675 -0.168496 -2.46061 4.76075 -4.11353 0.0756276 -0.586563 0.372654
302 1 1.52998 1.64637 9.3405 -1.42736 -3.15682 0.972455 0.285643 -4.06756 -0.180815 -0.186891 -0.0563423
303 1 2.87995 0.257353 7.74282 0.341516 -0.0404191 -2.60214 0.182098 -4.0966 0.179158 -0.167406 0.387904
304 1 4.29008 1.6221 9.18399 -4.04083 -0.468429 4.02966 0.151623 -4.02398 0.0198248 0.529876 0.559297
311 1 0.149724 2.85167 7.73464 -1.74976 0.28104 0.763369 5.04372 -4.01112 -0.223094 1.27211 -0.364269
313 1 2.89377 2.99568 7.62285 0.148637 -0.416692 -0.495992 0.340086 -3.99103 -0.438362 0.336172 0.996115
403 1 2.9679 0.297361 10.7528 0.394335 0.406084 2.23505 0.17473 -4.07399 -0.128325 -0.758002 -0.499916
411 1 0.156785 3.04543 10.7081 0.660313 -0.658618 -1.38298 0.137837 -4.09423 -0.606289 0.214879 -0.0892629
413 1 2.87494 3.0559 10.8168 -3.05234 -3.9865 -0.430171 0.330239 -4.11479 0.508932 -0.131726 -0.365086
305 1 5.63949 0.272746 7.73857 -2.6762 0.601797 -1.53878 0.272007 -3.97854 1.15593 0.369626 -0.539564
306 1 7.16827 1.7968 9.21294 -0.497955 1.38302 -0.554626 0.424309 -3.94658 -0.673922 -1.06759 0.499417
307 1 8.54451 0.339894 7.78234 2.06573 -1.47317 -0.377265 0.316235 -4.08311 -0.116522 -0.8323 0.132843
315 1 5.88369 2.98404 7.6561 0.746495 3.22544 0.384377 0.621386 -4.04475 -0.680232 0.461548 0.45343