ITEM: TIMESTEP
61500
ITEM: NUMBER OF ATOMS
2000
ITEM: BOX BOUNDS pp pp pp
1.0838953229856951e-01 1.4221610467701321e+01
2.1677906459713903e-01 2.8443220935402643e+01
-1.3023680458602604e+00 5.8622368045859822e+01
ITEM: ATOMS id type x y z vx vy vz c_csym c_peratom fx fy fz
2 1 1.62332 1.66863 0.203406 -0.282889 -3.25185 -0.636516 0.27795 -4.0682 -0.304324 0.162105 -0.662527
4 1 4.35789 1.61575 0.130661 0.990702 -5.33602 3.45801 0.227777 -4.09833 0.10113 -0.0073652 0.717843
11 1 0.115605 3.14255 -1.25397 0.617832 -0.194419 3.50607 0.215163 -4.02187 0.0701903 -0.200026 0.0932064
101 1 0.126621 0.284403 1.66654 -1.57173 1.46596 2.1275 0.152046 -4.08291 5.62538e-05 0.142399 -0.564089
103 1 2.85007 0.270771 1.72662 0.287695 0.367304 -1.8153 0.240318 -3.96968 0.757609 -0.0501568 -0.0414616
111 1 0.168447 3.08626 1.69321 -2.2925 0.592843 0.179022 0.131608 -4.09806 -0.101013 -0.136161 -0.0543234
113 1 2.87763 3.13123 1.74915 -1.71434 2.42111 -1.1208 0.330938 -4.04225 -0.283738 0.0275273 -0.19719
13 1 2.94284 3.10367 -1.28319 -0.0706192 -1.95523 0.774801 0.0728336 -3.99104 -0.229659 0.057714 0.10817
6 1 7.17995 1.58532 0.196594 -1.53139 -1.81767 -2.43971 0.2275 -4.06274 -0.0646335 0.613787 -0.0594107
17 1 8.63608 3.25517 -1.2326 -1.24355 -0.0988133 -0.860341 5.01815 -4.03798 -0.156286 -0.753031 -0.178453
105 1 5.90739 0.22905 1.69467 0.812795 -1.48127 -4.16198 0.294403 -4.05326 -0.476548 -0.166339 -0.109243
115 1 5.79048 3.13764 1.67981 -0.932742 0.818202 0.0439582 0.181216 -4.02217 -0.221904 -0.347181 -0.108969
117 1 8.60233 3.08029 1.76081 0.475293 0.415756 -1.302 0.16331 -4.02805 -0.205501 0.329413 -1.08479
15 1 5.86915 3.09703 -1.24479 -1.1078 -3.23994 -0.243916 0.292493 -3.97517 -0.171551 0.193623 -0.487314
8 1 9.98472 1.71462 0.0803834 1.02028 2.64764 -1.65962 0.392033 -4.02598 -0.285606 -0.325056 0.828327
9 1 11.3244 0.287262 -1.20121 -0.628437 1.37052 0.162777 0.395433 -4.02276 0.796757 -0.285569 -0.150673
10 1 12.8557 1.68831 0.131195 -0.261261 2.58464 0.684826 0.134866 -4.00319 -0.364677 0.187423 0.470775
109 1 11.3921 0.306018 1.66453 4.17545 -4.26001 3.01885 0.168338 -4.04434 -0.00233942 -0.309037 0.0735608
119 1 11.4562 3.11085 1.61003 -0.877516 0.612354 1.13148 0.153202 -4.07861 -0.425541 -0.666094 -0.247071
12 1 1.52356 4.6359 0.100412 1.18436 1.40208 1.05812 0.57035 -4.02243 0.208263 -0.661047 0.129999
14 1 4.34915 4.42365 0.297079 -0.761965 1.11821 -1.53086 0.272488 -4.07452 0.0812888 0.385323 -0.13834
22 1 1.54026 7.32431 0.127894 0.529166 1.27637 -0.648244 0.244695 -4.00371 -0.422829 -0.187485 0.965155
23 1 3.01689 5.92797 -1.27463 4.21453 0.286138 -0.65637 0.223095 -4.00618 -0.459627 -0.190724 -0.0677604
24 1 4.35552 7.36387 0.198357 0.718611 1.41969 0.425215 0.107341 -4.00538 -0.475391 -0.0353836 -0.202145
121 1 0.132435 5.82793 1.68622 -2.35864 3.10392 -0.471262 0.186307 -4.00868 0.46647 0.438128 -0.354907
123 1 3.01618 5.86763 1.78183 1.00139 1.8653 -1.24788 0.255744 -4.08712 -0.440561 -0.221657 0.0110844
16 1 7.14135 4.5226 0.275801 0.603539 0.154603 0.133915 0.154783 -4.03276 0.0445926 -0.215954 -0.110563
25 1 5.70759 5.92495 -1.18397 -0.827089 1.1553 2.35682 0.321656 -4.10642 -0.000432024 -0.639 -0.672393
26 1 7.1412 7.16975 0.148616 -0.0337704 2.62343 0.778117 5.00276 -3.92346 -0.0762767 1.23815 0.734934
125 1 5.74127 5.95799 1.72971 -0.136011 -2.75282 -0.154075 0.138171 -4.16202 0.230209 -0.0896911 0.116579
127 1 8.57446 5.88387 1.59377 -1.51658 -3.67076 0.00771245 0.367063 -4.057 0.417214 0.0962121 0.576262
18 1 10.0587 4.47472 0.199837 2.01504 1.15568 0.108705 0.212234 -4.03315 0.0866887 0.175004 0.369607
20 1 12.7939 4.54238 0.166063 -0.022531 3.00342 -1.17168 0.0603723 -4.08992 0.26762 0.196991 0.38067
28 1 10.1169 7.35391 0.289399 1.08986 -1.21663 1.80841 0.40463 -4.0053 -0.243959 -0.149944 0.135687
29 1 11.4127 5.98723 -1.28444 1.3822 1.47477 -0.555896 0.0537376 -4.08684 -0.604925 -0.248385 -0.0979221
30 1 12.8531 7.28188 0.260881 0.362699 -0.519128 0.486825 0.135717 -4.09958 -0.378483 0.510077 0.145416
129 1 11.3642 5.90889 1.73689 -0.995542 1.01394 2.2528 0.109312 -4.0815 0.14664 0.000775938 -0.0652079
32 1 1.48279 10.1923 0.130424 2.66336 -1.18469 0.933482 0.22496 -4.11689 0.41139 -0.609765 0.124877
34 1 4.32744 10.195 0.131347 -3.42019 -1.92301 1.41173 0.189349 -4.04766 -0.347034 -0.481728 0.089283
43 1 2.92107 11.628 -1.27981 2.17426 0.782241 3.50485 0.115941 -4.0827 -0.0198675 -0.36064 0.000878126
133 1 2.87707 8.77788 1.71978 -1.44944 0.975575 0.710255 0.0906687 -4.02417 0.474472 -0.236515 0.350695
141 1 0.146359 11.6297 1.60476 -2.20193 -7.04944 -1.51669 0.310972 -4.09491 0.310584 0.229012 0.335604
143 1 2.92416 11.521 1.69604 -0.572232 1.1909 1.77002 0.162067 -4.10236 -0.358805 0.0612795 -0.512436
36 1 7.17897 10.1662 0.245921 0.10168 3.47717 0.174941 0.16514 -3.96535 -0.174976 -0.290185 0.336812
47 1 8.63625 11.4798 -1.19847 -1.46078 2.66256 0.234251 0.282222 -4.04561 -0.198461 -0.0722167 -0.582307
135 1 5.71447 8.72482 1.79652 -0.880733 0.590278 -0.109653 0.286231 -4.04246 0.506267 -0.201561 -0.565772
137 1 8.61908 8.74613 1.63084 -4.19951 1.4167 -2.48788 0.358894 -4.07751 -0.308027 -0.0265564 -0.0928847
145 1 5.78797 11.4174 1.69865 0.913579 -3.10787 0.676852 0.314303 -4.03196 -0.435827 0.541778 -0.0526338
147 1 8.63173 11.5707 1.80212 -2.52053 -2.66134 -2.016 0.187818 -4.05772 -0.0875005 0.364475 -0.601749
37 1 8.64539 8.6808 -1.16841 -0.410704 1.96136 0.795798 0.362425 -4.10745 -0.272926 0.0765205 -0.211433
41 1 14.1834 11.5242 -1.20243 -1.35835 -5.95404 3.83557 0.242241 -4.0436 -0.0847939 0.517688 -0.175635
131 1 14.189 8.78043 1.81757 -1.59748 2.05417 3.03081 0.394763 -3.98298 0.60733 -0.21606 -0.698953
38 1 10.1092 10.2499 0.314894 0.647054 3.02786 -2.05404 0.493938 -4.05425 -0.487353 -0.648651 0.416573
39 1 11.3428 8.78317 -1.24955 2.80774 -0.622395 -1.00191 0.22347 -4.06248 0.381989 0.0653746 0.281263
40 1 12.8549 10.1114 0.332531 -1.75728 -0.634733 -0.267602 0.240972 -4.06732 0.0890556 -0.0276222 -0.599318
139 1 11.4119 8.69776 1.78363 -0.425376 2.4171 -0.0430739 0.108665 -4.07898 -0.0546207 0.431887 -0.497217
149 1 11.4267 11.5446 1.78452 -0.904464 -0.906018 0.248794 0.175115 -4.05474 -0.0839196 -0.0633436 -0.0499412
49 1 11.351 11.4979 -1.22068 -3.94296 -1.72452 -3.57845 0.143676 -4.01772 0.576025 0.485321 -0.225105
42 1 1.60077 12.9976 0.113744 -0.841826 -0.173751 0.753914 0.423495 -4.05416 -0.739891 0.359981 0.570991
44 1 4.30049 12.9516 0.0983864 -1.17519 0.372824 -0.13007 0.108591 -4.12301 0.647647 0.0231943 0.41043
52 1 1.58776 15.7356 0.345865 -0.585983 1.26946 1.71295 0.673739 -3.96088 -0.457019 -0.0492244 -0.999812
54 1 4.38463 15.6552 0.194979 0.269637 0.959657 1.9614 0.269678 -4.06789 -0.265191 0.0508143 -0.300362
153 1 2.9946 14.2978 1.70931 -3.03426 -0.361765 3.65674 0.165202 -3.98996 -0.534473 0.0832264 0.392198
46 1 7.13899 12.8477 0.170105 -0.042375 -0.703018 -2.37022 0.223643 -4.01342 0.0723669 0.141145 0.425855
56 1 7.08452 15.7726 0.114994 0.19616 0.505449 -1.21975 0.249449 -4.06818 0.184008 -0.290212 0.0808463
155 1 5.76502 14.3443 1.65176 -0.699273 2.50818 -2.71856 0.103186 -4.06095 0.307118 0.0729715 0.24582
157 1 8.53251 14.4644 1.73678 1.77519 1.9958 -4.01974 5.03238 -4.0719 0.234946 -0.391057 0.377255
57 1 8.49816 14.3386 -1.16018 5.27468 2.46447 0.151665 0.49302 -3.96533 0.140591 -0.0955346 -1.00478
51 1 14.0057 14.3518 -1.30195 5.08997 3.62125 -2.07853 4.73959 -3.97151 1.05019 -0.558854 -0.287824
151 1 14.2009 14.4155 1.7178 -4.71089 2.01634 -0.85659 0.121602 -3.9812 0.179364 -0.715115 0.125859
48 1 9.93985 13.0563 0.221358 2.86016 2.34417 0.701272 0.2699 -4.0492 0.32961 -0.880602 0.360075
50 1 12.7181 12.9904 0.218626 0.559624 -1.36974 -0.820506 0.176942 -4.05477 0.0429327 0.014579 0.214624
58 1 9.99316 15.7186 0.203115 -3.3381 -1.51398 5.38263 0.170192 -4.06519 0.365936 0.594681 0.126964
60 1 12.7967 15.7437 0.208813 1.53771 1.90327 -4.70531 0.111539 -4.05683 -0.0157167 0.203322 0.215652
159 1 11.3491 14.3264 1.76843 -0.265735 -1.65506 -3.98071 0.151482 -4.05365 0.500205 0.135346 -0.0606645
62 1 1.43944 18.5161 0.244718 0.272627 0.831543 -0.200207 0.11585 -4.01251 0.306813 0.569261 -0.419665
64 1 4.38586 18.6552 0.248929 1.24428 1.0664 2.86252 5.12578 -4.00694 -0.469025 -0.825308 -0.212251
163 1 2.94245 17.1558 1.6034 0.341627 2.40032 0.506019 0.388078 -4.01922 0.764354 -0.117168 0.238107
171 1 0.141802 19.9783 1.806 -0.0590841 -1.37942 4.27312 0.168877 -4.10924 -0.197309 -0.134976 -0.593627
173 1 2.89555 19.9823 1.68713 0.785649 -1.23368 2.3689 0.145473 -4.09233 -0.386523 -0.0503396 0.493299
66 1 7.24355 18.6165 0.248145 2.75597 -4.35103 0.905848 5.38327 -4.13608 -0.423627 0.273 0.125682
67 1 8.57677 17.1461 -1.27804 -4.30079 -3.56988 1.31798 0.0495471 -4.12941 -0.252834 -0.381159 -0.185903
165 1 5.78304 17.093 1.64266 1.97311 1.99329 -0.167527 0.238341 -4.02869 -0.303443 0.355062 -0.0205643
167 1 8.56005 17.078 1.58911 1.63712 1.01306 -0.622391 4.62308 -4.07192 0.168573 0.00633524 0.865373
175 1 5.70632 20.007 1.71317 -3.42076 -2.85137 2.01629 0.133092 -4.03755 0.222362 0.166894 -0.121469
177 1 8.58858 20.043 1.91943 -1.05917 0.80188 -0.731301 0.964675 -3.99139 -0.286251 -0.421827 -0.98793
75 1 5.71713 19.9361 -1.29289 -4.53949 -0.9021 2.29786 0.128245 -4.04886 -0.432735 -0.0300611 -0.944829
65 1 5.67248 17.193 -1.25464 -1.31158 -3.63153 -0.620776 0.33006 -4.08937 0.41256 0.0804726 0.0838605
161 1 14.1852 17.2046 1.81125 -8.06951 -0.86164 0.0732044 0.212453 -4.11144 0.12867 -0.0443146 -0.232974
68 1 9.83757 18.5862 0.274591 1.01621 0.95189 3.77626 5.18984 -4.09403 0.482996 0.642477 -0.0245511
70 1 12.7582 18.5098 0.233991 -2.75978 -0.241021 0.901339 0.155617 -3.98047 0.0363418 0.313724 -0.431011
169 1 11.4357 17.1907 1.70259 -0.050047 0.778513 1.36961 0.109464 -4.04225 -0.816058 0.285335 0.401214
179 1 11.4548 19.9395 1.78829 0.478562 4.61523 -0.247094 0.246186 -4.07256 -0.464565 -0.0112054 -0.404648
69 1 11.3235 17.1806 -1.19627 2.51938 -0.439877 2.89062 0.211774 -4.05141 0.0703758 -0.480202 -0.671573
71 1 14.189 20.001 -1.18958 -3.02828 1.71166 0.793185 0.298417 -3.93329 0.00487387 -0.58179 -0.192244
61 1 14.2026 17.0274 -1.23002 -2.79754 0.110739 5.17862 0.291197 -4.00097 0.195482 0.325859 0.158756
72 1 1.54936 21.3951 0.151052 2.3338 -3.4761 -2.56089 0.17341 -4.1153 -0.534158 0.0712154 -0.218186
74 1 4.24289 21.3195 0.280993 -0.775897 2.76848 -0.309503 0.359587 -4.15965 0.337831 -0.096892 -0.222566
82 1 1.5098 24.075 0.0784089 -0.197856 1.54937 -4.05427 0.288213 -4.0954 -0.338247 0.801967 -0.183827
84 1 4.24694 24.1216 0.225178 1.75243 2.83472 -4.12876 0.390266 -4.00135 0.741339 0.188859 -0.577867
181 1 0.128659 22.763 1.65103 -3.03311 -1.67311 -0.629939 0.0465557 -4.07217 -0.23687 -0.125922 -0.216188
183 1 2.89382 22.7594 1.60857 0.572942 -1.11899 -0.365379 0.155154 -4.10142 -0.129931 0.281382 0.780421
76 1 7.14056 21.2635 0.19895 -0.691281 0.193514 1.05787 0.365592 -3.96395 0.131944 0.929732 0.293365
86 1 7.25436 24.2668 0.201577 -2.43118 3.29649 -1.15762 5.48392 -3.94344 0.15282 -0.14957 -0.353692
185 1 5.72509 22.8979 1.61364 3.67767 -2.14848 -3.35625 0.466499 -4.0654 0.0437884 -0.73716 0.259189
187 1 8.47118 22.692 1.78495 -0.732136 -0.532565 -1.73565 0.576599 -4.05659 0.0651953 0.106465 -0.221353
78 1 9.92402 21.3232 0.143469 -2.14879 -1.2859 1.20999 0.216898 -4.06808 0.0995902 0.227251 0.950489
80 1 12.7264 21.3466 0.2184 -2.02506 0.894117 1.33119 0.0637289 -4.01483 0.709052 0.251571 -0.00221297
88 1 9.99398 24.1702 0.242325 -1.34963 2.3224 -3.76156 0.198274 -4.07673 -0.0437836 0.156945 0.121052
90 1 12.8226 24.1983 0.1104 -3.32555 -1.34099 0.789537 0.178222 -4.02207 -0.868217 0.00802702 0.374715
189 1 11.404 22.6532 1.63297 1.1462 2.87937 3.03823 0.285032 -3.97584 0.226266 0.882167 -0.148578
92 1 1.49183 27.0716 0.188274 -1.55268 0.823337 -0.21304 0.0685517 -4.03185 -0.358857 -0.358878 0.163845
93 1 2.95679 25.6072 -1.28275 -2.98218 -1.24306 2.03838 0.165719 -4.0603 0.113602 -0.0357032 -0.286995
94 1 4.31233 27.0701 0.346097 -2.42482 -0.468398 -1.32983 0.655758 -3.98987 -0.280225 0.332444 -0.883509
193 1 2.87926 25.4829 1.62336 -1.0862 0.475835 1.41936 0.407093 -3.99898 -0.00515098 0.456109 -0.101669
5 1 5.72241 28.2956 -1.22186 2.69086 -0.906142 0.0342517 0.564983 -4.04178 -0.058272 0.635375 -0.639882
107 1 8.62684 28.3911 1.73043 1.62718 -2.83475 -3.52836 0.292906 -4.10042 -0.160625 1.29225 -0.557965
96 1 7.19496 27.0059 0.190489 3.8854 -2.09663 -3.2721 0.0375083 -4.09016 -0.403431 0.00699121 0.113903
195 1 5.7699 25.6353 1.63836 -1.7019 -1.17403 1.74296 0.127999 -4.02252 -0.0873384 -0.094325 0.763476
197 1 8.65402 25.6862 1.6911 -0.592902 -0.620959 0.00800132 0.317442 -4.09 -0.656406 -0.496298 0.613237
7 1 8.51249 28.4072 -1.2008 0.305773 -1.36188 3.04787 0.329989 -4.02818 0.178585 -0.209146 -0.746007
191 1 14.1954 25.5315 1.64757 -0.0885336 -4.4938 -0.48509 0.207068 -3.97074 0.761034 0.190182 -0.63644
98 1 9.85719 27.0277 0.146295 2.60699 4.64685 0.62246 0.392399 -4.13338 0.748983 -0.183244 0.26461
100 1 12.8111 27.1397 0.201105 0.688756 2.41483 -3.36628 0.109979 -4.04059 -0.103636 -0.152844 0.242244
199 1 11.3947 25.7747 1.69267 -1.77748 -0.753815 0.440887 0.579988 -3.99499 0.180474 -0.582359 0.364853
99 1 11.3966 25.6653 -1.24012 -3.11862 -0.640777 0.494149 0.137735 -4.06525 -0.24793 -0.0120884 0.360101
102 1 1.43258 1.58866 3.21863 7.38627 -3.29026 1.48818 0.293624 -4.08322 0.251596 0.297089 0.285554
104 1 4.40471 1.70471 3.12902 -2.62904 -0.431866 -2.50035 0.227067 -4.05553 -0.479108 -0.22496 -0.499911
202 1 1.64591 1.56967 6.07383 2.02744 3.5456 -1.59179 4.49484 -4.06032 -0.643217 0.734514 0.430008
203 1 2.94499 0.259696 4.64771 -1.3304 -3.48688 0.0854903 0.127662 -4.0957 0.33154 -0.118762 -0.129362
204 1 4.18458 1.68524 6.15445 -0.935437 1.48785 2.63114 4.40549 -4.0506 1.29482 -0.596541 -0.414967
213 1 2.88677 3.08084 4.6137 -2.28947 -0.845795 -1.07431 0.346114 -4.09068 0.103028 -0.102953 0.283286
106 1 7.15632 1.63052 3.11406 0.736671 -1.16949 0.0239501 0.234398 -4.12122 0.735742 0.652391 0.573859
205 1 5.64874 0.299036 4.51422 2.33469 0.995414 0.291621 0.55823 -3.97945 0.489621 -0.424818 1.33975
206 1 7.2548 1.68985 6.11621 -1.46106 -1.55409 1.7364 0.352239 -4.01629 -0.556447 -0.66079 -0.339241
207 1 8.58474 0.236208 4.723 1.31666 3.04051 1.49325 0.146115 -4.02957 0.378941 0.332596 -0.70737
215 1 5.78167 2.95842 4.77499 -1.49422 -2.50707 3.51511 0.51157 -4.03487 -0.262106 0.101026 -0.200745
217 1 8.60442 3.0921 4.6707 -1.80041 2.92479 -5.24384 0.12123 -4.07363 -0.576186 -0.245803 0.053328
201 1 14.2143 0.277593 4.7266 -0.76465 1.66164 -3.30675 0.313948 -4.07973 0.112194 -0.236808 -0.260363
211 1 14.1953 3.09372 4.78006 0.131749 -3.47244 0.658656 0.260348 -4.04155 0.125711 -0.817661 -0.433501
108 1 9.98023 1.81548 3.24004 1.78008 -0.0382443 0.481447 5.43566 -3.98111 0.412643 -1.36868 -0.114708
110 1 12.7567 1.63776 3.15076 0.143622 0.261967 0.471904 0.158633 -3.96542 0.036256 0.172753 0.612068
208 1 9.93587 1.5992 6.2044 -2.11946 3.54369 -4.60115 0.124295 -4.15457 0.222391 0.217036 -0.254356
210 1 12.7168 1.62492 6.23245 1.93469 -2.84729 3.21644 0.353535 -4.02279 -0.34689 0.00467485 -0.719363
219 1 11.4042 3.08595 4.69528 2.96876 -3.6 -0.306264 0.0653896 -4.01381 -0.167537 0.0931484 0.0190243
112 1 1.47335 4.44722 3.30146 -2.08488 5.53109 1.88305 0.232883 -4.00969 0.299277 0.510636 -0.23687
114 1 4.45714 4.53943 3.31375 0.408107 -1.46821 1.68028 5.01814 -4.08174 -0.328188 -0.229791 -0.412273
122 1 1.5387 7.19477 3.26896 -2.178 2.10286 -1.52883 0.265061 -3.96669 -0.614362 -0.0170766 -0.370199
124 1 4.30599 7.3213 3.24653 -1.70609 -0.894295 0.386355 0.157396 -3.98173 0.26945 0.257265 -0.134244
212 1 1.5107 4.56417 6.2105 1.71349 1.1107 -0.37813 0.379406 -4.08108 0.261415 -0.483063 -0.180215
214 1 4.35594 4.34938 6.22843 -3.60792 0.888428 1.10906 4.78679 -4.06202 -0.125913 0.526411 -0.628567
222 1 1.54559 7.23945 6.18928 2.60978 -1.28947 -2.65909 0.156281 -4.09268 -0.187472 -0.295921 0.238918
223 1 3.00176 5.86832 4.73432 -2.9209 -3.41332 -1.19244 0.11971 -4.08663 0.247723 0.188399 0.105081
224 1 4.45542 7.31972 6.22479 2.28078 -2.16034 3.83898 0.294716 -4.03179 -0.575572 0.491282 -0.458468
116 1 7.08446 4.43511 3.24695 -0.717838 -0.661302 1.69127 5.11535 -4.08002 0.41466 0.275749 -0.330433
126 1 7.33953 7.39572 3.22615 1.37971 -3.46356 0.697126 0.489009 -3.97071 -0.377583 -0.75263 -0.143658
216 1 7.15048 4.45322 6.07523 0.663868 1.20315 1.59813 0.330309 -4.117 0.346957 0.777184 0.356422
225 1 5.7941 6.05956 4.6502 0.299468 -1.75276 -1.18853 0.618291 -4.02996 -0.0349075 -0.351863 0.214648
226 1 7.22143 7.27669 6.19203 -1.92098 2.73055 -2.00716 0.110369 -4.11706 -0.0207962 -0.029661 0.330411
227 1 8.61587 5.8789 4.6567 -0.532809 -0.371899 0.126652 0.130984 -4.0325 -0.0502113 0.0694066 -0.00140655
221 1 14.1524 5.86373 4.74822 0.796103 -1.93786 -0.0692733 0.126048 -4.06057 0.228453 0.481353 -0.699165
118 1 10.0291 4.4796 3.21038 -2.00022 0.251406 -1.34662 0.100816 -4.11171 -0.348602 0.0494245 -0.620746
120 1 12.7727 4.51546 3.14729 -2.93314 -0.0391201 0.674702 0.110923 -4.0855 0.383166 -0.0855925 0.26974
128 1 10.0124 7.32217 3.1623 -2.7644 2.28321 3.1472 0.126131 -4.09367 -0.615372 -0.0664582 -0.0929646
130 1 12.7448 7.26336 3.16814 -1.8326 -3.86476 -3.53257 0.159958 -4.09579 0.637469 -0.245857 0.327771
218 1 9.92391 4.44006 6.18628 2.54663 2.02038 1.45237 0.0879879 -4.10263 0.558226 -0.0278848 0.0434146
220 1 12.7806 4.44772 6.17818 -0.879614 -1.25736 1.20844 0.0629907 -3.98013 -0.215099 -0.393994 0.0382955
228 1 9.92162 7.27115 6.27002 0.0778168 -0.255412 1.79302 0.256129 -4.07826 0.436259 0.354177 0.176977
229 1 11.2652 5.91426 4.72827 0.58398 1.74186 -1.1864 0.299287 -4.07981 0.758117 -0.165087 0.217858
230 1 12.8446 7.35538 6.1043 2.31232 0.678649 1.21522 0.27393 -4.04592 -0.712288 -0.589233 0.585001
132 1 1.49806 10.2454 3.1289 0.926583 1.77752 2.20689 0.201026 -4.0256 0.034797 -0.45926 0.34201
134 1 4.33421 10.2257 3.26424 -1.95039 -2.01599 -1.69927 0.275576 -4.01383 0.180821 -0.821348 -0.116128
232 1 1.56015 10.1641 6.20553 2.12226 0.0705619 -0.681687 0.208895 -4.09262 -0.348963 -0.0598018 -0.350582
233 1 2.86938 8.7146 4.75078 -0.683116 0.194601 5.31636 0.144658 -4.01302 0.205133 0.237166 -0.727598
234 1 4.30212 10.2221 6.18424 -0.621179 0.157015 -0.123602 5.2749 -4.06403 0.677107 -0.369405 -0.0455952
241 1 0.149986 11.5192 4.65161 -2.41095 0.904273 -0.0212207 0.091822 -4.06405 -0.249326 0.274591 -0.00213391
243 1 2.87755 11.525 4.5995 -0.234391 0.744033 0.670144 0.241584 -4.03507 -0.297547 -0.0206259 0.087229
136 1 7.34978 10.1327 3.24189 0.629619 0.98562 1.20116 4.86892 -4.08729 -0.638422 0.278033 -0.131323
235 1 5.87066 8.81598 4.62316 0.465343 -1.43871 1.4062 0.376468 -4.06342 -0.710269 -0.621003 0.374249
236 1 7.13391 10.1574 6.21151 2.36863 -0.429749 -0.449581 0.259088 -4.11381 -0.317248 0.0637724 0.223876
237 1 8.63235 8.75913 4.84353 2.56455 0.935182 0.542097 0.360609 -4.12231 0.127331 -0.238491 -0.301533
245 1 5.87987 11.5851 4.68704 0.240801 -0.541356 -0.243051 0.423423 -4.05132 -0.332037 -0.0845333 -0.503678
247 1 8.6244 11.498 4.79503 0.432483 -3.51449 2.45946 0.194171 -4.11985 0.123173 0.695187 -0.0389832
231 1 14.2058 8.74973 4.6506 -0.187028 1.52542 1.17023 0.0859578 -4.10663 0.487258 -0.300381 -0.140277
138 1 9.92992 10.142 3.17562 -1.64946 -2.47072 4.24093 5.10902 -4.13717 0.933926 -0.236404 0.596342
140 1 12.8378 10.2224 3.1837 -3.06779 0.590986 0.953237 0.191683 -4.11464 -0.645315 -0.506403 0.353294
238 1 10.0462 10.0877 6.21083 4.00462 1.03455 -0.403308 0.140408 -4.0202 -0.00324751 0.160868 0.433864
239 1 11.364 8.67474 4.65789 1.07823 -1.10089 5.00007 0.0979476 -4.09284 -0.0500059 0.210699 -0.00149703
240 1 12.788 10.0949 6.03502 0.473313 1.12475 -2.36237 0.371537 -3.98205 0.317218 0.440789 1.07532
249 1 11.3994 11.5636 4.78435 0.00818624 4.09037 -1.73351 0.245036 -4.07438 -0.541156 -0.258204 -0.158259
142 1 1.52181 13.0509 3.28551 -1.28477 -4.17543 2.9049 0.347805 -4.10691 0.0677734 -0.170926 -0.0708458
144 1 4.29805 12.8216 3.11863 1.81958 -2.20134 0.0142737 4.77444 -4.04441 0.678403 0.770622 0.264566
152 1 1.51339 15.8576 3.2615 -0.669006 2.84052 -0.820189 5.19799 -4.1485 0.694804 -0.645274 -0.408862
154 1 4.25725 15.7179 3.17589 2.46855 -1.35996 -1.82568 0.305518 -4.04557 0.685649 0.207035 -0.578528
242 1 1.53992 12.9165 6.15356 0.280113 3.4737 -1.1283 0.118743 -4.12432 0.133051 0.292743 0.331569
244 1 4.24982 12.7782 6.18029 2.14938 -0.0921022 -0.749942 5.18708 -4.06934 0.256287 0.442272 -0.216254
251 1 0.128475 14.4623 4.75056 2.68999 -0.1114 0.508103 0.223345 -4.04613 -0.388459 -0.208073 0.139508
252 1 1.63436 15.7834 6.06564 -3.12021 0.366244 0.726554 0.463662 -4.00263 -0.0922156 -0.213915 0.428231
253 1 3.02926 14.3678 4.72523 0.643288 -2.70259 -2.00417 0.353649 -4.01899 -0.114223 -0.328606 -0.23161
254 1 4.32401 15.7314 6.27432 -3.29084 -1.84392 -1.68306 0.274995 -4.02196 0.20252 0.240689 -0.213574
146 1 7.13468 12.9886 3.19032 1.04428 0.1527 -2.62964 0.131815 -3.92095 0.577389 -0.687684 0.0862707
156 1 7.1141 15.8395 3.21734 -5.45427 -4.00032 2.42238 0.290514 -4.04236 0.0798901 -0.217505 -0.264792
246 1 7.17912 12.9922 6.22509 0.991656 -1.68864 -0.448699 0.137042 -4.01461 0.706958 0.124164 0.133243
255 1 5.79332 14.3612 4.64204 0.949383 2.2935 -3.25327 0.177653 -4.08057 -0.678057 -0.0743266 0.351318
256 1 7.19239 15.8423 6.08736 -0.861153 0.781607 -0.146585 0.374323 -4.05521 0.58928 -0.894717 0.208064
257 1 8.60857 14.4287 4.74175 -2.00567 3.54744 2.76289 0.0730559 -4.05375 -0.198961 -0.506309 -0.590995
148 1 10.0789 12.8625 3.288 2.53119 -0.204599 1.59625 0.297445 -4.01876 -0.412854 0.771213 -0.3217
150 1 12.8144 12.9078 3.25401 0.842405 -1.04171 -0.584461 0.156866 -4.11816 0.422438 0.431412 0.00835002
158 1 10.0599 15.8093 3.27091 1.95172 -4.28031 -2.67566 0.25355 -4.02549 0.279144 -0.0447869 0.121471
160 1 12.7974 15.8078 3.17112 2.05154 2.79304 -0.0709358 0.189728 -4.0618 -0.274429 -0.521768 0.413686
248 1 10.001 13.0598 6.23008 1.15591 3.93167 -3.97146 0.32706 -4.02904 0.180772 0.0637279 -0.182674
250 1 12.9049 12.9601 6.13275 1.45982 -1.9964 -1.75047 0.258881 -4.08085 -0.187912 -0.302745 0.395595
258 1 10.0849 15.781 6.19192 3.15439 -2.57917 -3.22034 5.31091 -4.1096 -0.573375 -0.458098 0.0183943
259 1 11.5154 14.2983 4.68549 2.36546 0.76793 -0.871017 0.266792 -4.07533 -0.413914 0.633665 0.0251912
260 1 12.7221 15.7462 6.21972 1.07372 0.97037 -2.70378 0.528845 -3.99985 0.723197 0.186706 0.00324769
162 1 1.61205 18.4318 3.20311 0.103087 0.473685 0.329909 4.91286 -4.05957 -0.38308 0.358449 0.453749
164 1 4.41893 18.6151 3.08932 -0.211573 3.22505 -5.20284 0.341848 -4.04411 -0.561782 -0.821959 0.324469
262 1 1.64124 18.6991 6.16897 -1.57751 0.894061 -4.43727 0.343478 -4.09012 -0.813644 -0.769386 -0.290226
263 1 3.02324 17.1738 4.67218 -2.37006 -0.133771 0.32695 0.261111 -4.08404 0.0135979 0.318053 0.285719
264 1 4.25569 18.5351 6.31306 2.99979 1.41468 -0.253245 0.480935 -4.04956 0.591466 0.316703 -0.152769
271 1 0.239882 19.931 4.58074 -2.9132 -1.24747 -1.34561 0.590907 -4.05643 0.0633763 -0.0874013 0.0351702
273 1 3.06119 20.0027 4.68821 0.40391 -0.0741893 3.19324 0.357478 -4.07551 -0.542507 0.482532 -0.193497
166 1 7.16241 18.5363 3.18487 0.698547 0.150344 -2.49931 0.173393 -4.12708 -0.162472 -0.0922456 -0.102865
265 1 5.71847 17.1429 4.80711 -1.6126 -0.82668 -3.54668 0.425507 -4.07644 -0.764912 0.0502418 -0.343239
266 1 7.25348 18.553 6.0886 1.95445 3.37989 -0.145865 0.542243 -3.99678 -0.699996 -0.044748 0.458562
267 1 8.63962 17.1234 4.61375 1.62128 1.24999 -1.44411 0.261221 -4.03033 -0.489122 0.101068 0.255448
275 1 5.66392 19.9514 4.69447 0.0670137 -1.38317 -3.87798 0.299984 -4.06868 0.433444 -0.153986 0.311665
277 1 8.52362 20.0544 4.68382 0.898333 -0.0775842 -0.479706 0.253279 -4.10127 0.480988 0.153389 0.20941
261 1 14.1769 17.1487 4.76433 3.22524 -0.724689 1.23685 0.353183 -4.10154 0.120253 0.44022 0.068906
168 1 9.9888 18.5753 3.22742 -3.61858 0.233632 -1.83299 0.202374 -4.03549 -0.0632772 -0.264972 0.0588845
170 1 12.8038 18.6463 3.33271 0.900172 4.64776 -2.52583 0.325202 -4.07699 -0.255128 -0.62498 -0.36606
268 1 9.90461 18.5053 6.28775 4.57801 -0.241298 0.328247 4.50199 -4.02181 0.589565 0.289824 -0.520297
269 1 11.4148 17.1891 4.86952 1.22914 3.37173 -1.05524 0.385559 -4.04113 0.402827 0.67879 -1.21026
270 1 12.909 18.7314 6.1742 -1.75346 -1.91228 -0.862528 0.530179 -4.04423 -0.64529 -0.34389 0.684288
279 1 11.3598 20.0486 4.66209 2.0114 -4.45816 0.994583 0.261442 -4.01957 -0.463083 -0.0866603 0.522701
172 1 1.47279 21.4257 3.2305 2.33301 -0.225112 2.95214 0.27183 -4.07146 0.498846 -0.0458275 -0.278846
174 1 4.32705 21.4567 3.07835 -1.27528 -0.710527 -1.51037 0.269538 -4.07589 -0.000617972 -0.218148 -0.0279956
182 1 1.5749 24.1646 3.18325 -0.784188 -3.79054 -2.16947 0.0647064 -4.10825 -0.485721 0.283785 0.382835
184 1 4.3073 24.238 3.14088 -0.587332 0.565944 -1.32797 0.143734 -4.0598 -0.0625124 -0.459459 -0.424834
272 1 1.50093 21.4332 6.09438 -1.3891 0.701157 2.48604 0.365847 -4.11295 0.537802 -0.37778 0.512688
274 1 4.4257 21.4489 6.25486 2.59471 -0.91757 -0.537123 0.261718 -4.01125 -0.0449081 -0.3368 -0.438984
281 1 0.183488 22.7914 4.74754 -2.74019 0.616667 0.622568 0.152777 -3.99504 -0.199445 0.211782 -0.347212
282 1 1.52472 24.1909 6.26273 -1.23117 0.365724 -0.651941 0.160467 -4.07506 0.837254 0.162161 -0.577121
283 1 2.92311 22.8102 4.76519 1.18139 2.06881 4.32688 0.172814 -4.0154 0.811435 0.134195 -0.455731
284 1 4.42474 24.2671 6.23055 -2.88227 1.45219 3.65201 0.164133 -4.00724 0.138836 -0.527165 -0.117489
176 1 7.06694 21.3141 3.25105 -3.95137 -1.5893 -1.01736 0.39035 -4.05283 0.18148 0.18316 -0.769361
186 1 7.17879 24.1447 3.09164 2.78581 2.06017 1.88695 0.189536 -3.97921 -0.188217 0.822607 0.0507273
276 1 7.10716 21.4372 6.24401 2.60993 -1.18025 -2.38511 0.240865 -4.03762 0.394218 -0.267954 -0.354399
285 1 5.85589 22.7635 4.56058 1.31531 1.02106 -0.50399 0.53641 -4.00351 -0.870161 1.09113 0.825979
286 1 7.16944 24.2408 6.22456 1.08031 -1.08147 0.839848 0.278315 -4.02864 -0.143036 -0.669365 -0.308178
287 1 8.6565 22.7436 4.60607 2.42 3.87829 -0.705154 4.7575 -4.18448 -0.52708 0.159398 0.618562
178 1 9.99102 21.4199 3.14556 -1.13098 -1.50552 3.15931 0.240677 -4.07206 0.734304 -0.106382 -0.0334807
180 1 12.8404 21.4228 3.27666 -0.471497 0.0061306 0.269058 0.290904 -4.17994 -0.283413 0.00834113 0.241921
188 1 10.0407 24.0693 3.0408 -1.30348 -2.27273 0.479064 4.66159 -3.96228 0.060822 0.927824 0.0728994
190 1 12.925 24.1389 3.15572 -1.55903 -2.12372 1.13416 0.400069 -3.98174 -0.662204 0.374167 0.0109359
278 1 9.94955 21.4304 6.29451 1.38589 -0.978514 1.96516 0.322344 -3.98732 -0.317501 -0.759709 -0.596993
280 1 12.8739 21.3633 6.10829 1.61778 1.13426 1.57654 0.290783 -4.12611 0.0549001 0.139094 0.0534159
288 1 10.0194 24.1956 6.27528 2.68269 2.22443 1.78439 0.382943 -4.00672 -0.48034 0.21766 0.0821289
289 1 11.3072 22.8471 4.68913 -3.96248 4.07387 -0.259648 0.488296 -4.08967 0.254556 -0.000310059 0.153788
290 1 12.8777 24.1232 6.16365 1.06046 -1.98762 3.24564 0.236438 -4.08695 -0.533456 0.447832 0.449012
192 1 1.54582 26.9795 3.21568 0.832332 -0.820942 0.130328 0.145867 -4.13374 0.125143 0.35359 0.194305
194 1 4.33343 27.1078 3.15906 -1.61671 -3.20912 1.28134 0.249937 -4.05423 -0.163764 -0.558139 -0.566069
291 1 0.123486 25.6243 4.80516 -1.91934 -0.395923 -0.219087 0.375204 -3.99694 0.164311 -0.0646503 -0.509352
292 1 1.58125 27.1181 6.08011 0.521729 -0.104332 -0.21211 0.263972 -4.1191 -0.106483 -0.772012 0.359635
293 1 3.0799 25.6086 4.66151 2.80973 1.17343 -0.298043 0.379964 -3.99193 -1.01753 0.205582 0.489232
294 1 4.2495 27.1204 6.15629 -1.17778 2.9951 1.58236 0.251185 -4.03941 0.4781 0.0574141 0.0131761
196 1 7.3038 27.0489 3.29897 3.37805 -2.98627 4.17109 4.76647 -4.00519 -0.729677 0.0824574 -0.885924
295 1 5.73558 25.636 4.64091 2.43808 0.681994 -1.51506 0.155984 -4.08074 0.364413 0.144377 0.140723
296 1 7.17419 27.0665 6.07007 0.309675 6.50899 -1.89168 0.243745 -3.9695 0.00872982 0.258495 -0.0902424
297 1 8.56397 25.5256 4.6868 -0.134748 1.31643 -3.31811 0.344977 -4.08699 1.27467 0.233074 -0.140744
209 1 11.3537 28.3011 4.75296 -0.393176 -1.47754 0.78913 5.68427 -3.95954 0.355498 0.713114 -1.02749
198 1 9.95313 27.0869 3.09785 0.689763 -0.698924 -1.31982 0.299979 -3.9086 0.154818 -0.254295 1.03336
200 1 13.0099 27.0067 3.15107 5.30296 -0.270392 0.651806 5.32099 -3.98767 -0.871746 0.331955 0.0335793
298 1 9.9521 27.1594 6.23318 1.28797 -2.74568 -4.13594 0.325658 -4.05258 -0.229187 -0.967164 0.266915
299 1 11.357 25.6421 4.72883 0.613569 6.18239 1.53807 5.98168 -3.99195 0.272089 -0.327259 -0.120272
300 1 12.9347 27.0657 6.22553 -0.577292 -1.28953 -3.83829 0.297406 -4.06229 -0.589613 0.0746211 0.377169
301 1 0.190771 0.330155 7.55128 0.5675 -0.168496 -2.46061 4.76676 -4.11174 0.288739 -0.53918 0.178945
302 1 1.52998 1.64637 9.30403 -1.42736 -3.15682 0.972455 0.286551 -4.06573 -0.088591 -0.272735 -0.0375944
303 1 2.87995 0.257353 7.70334 0.341516 -0.0404191 -2.60214 0.182294 -4.09504 -0.0863736 -0.33219 0.401699
304 1 4.29008 1.6221 9.14722 -4.04083 -0.468429 4.02966 0.151845 -4.02112 0.247032 0.628108 0.516322
311 1 0.149724 2.85167 7.69514 -1.74976 0.28104 0.763369 5.04995 -4.00813 -0.160285 1.63157 -0.533497
313 1 2.89377 2.99568 7.58314 0.148637 -0.416692 -0.495992 0.340831 -3.98881 -0.0848656 0.289161 0.947301
403 1 2.9679 0.297361 10.719 0.394335 0.406084 2.23505 0.174901 -4.07211 0.155571 -0.730359 -0.124948
411 1 0.156785 3.04543 10.6742 0.660313 -0.658618 -1.38298 0.138119 -4.0919 -0.2375 0.654959 0.0768463
413 1 2.87494 3.0559 10.7831 -3.05234 -3.9865 -0.430171 0.331226 -4.11269 0.389633 -0.0188116 -0.393264
305 1 5.63949 0.272746 7.69908 -2.6762 0.601797 -1.53878 0.272173 -3.97502 0.822893 0.264984 -0.371562
306 1 7.16827 1.7968 9.17623 -0.497955 1.38302 -0.554626 0.424422 -3.94552 -0.410841 -1.14149 0.557772
307 1 8.54451 0.339894 7.74293 2.06573 -1.47317 -0.377265 0.316753 -4.08077 -0.334928 -1.05915 -0.0426976
315 1 5.88369 2.98404 7.61645 0.746495 3.22544 0.384377 0.621567 -4.04374 -0.70285 0.0370441 0.365689