ITEM: TIMESTEP
94500
ITEM: NUMBER OF ATOMS
2000
ITEM: BOX BOUNDS pp pp pp
1.0838953229856951e-01 1.4221610467701321e+01
2.1677906459713903e-01 2.8443220935402643e+01
-2.2338406275968419e+00 5.9553840627596401e+01
ITEM: ATOMS id type x y z vx vy vz c_csym c_peratom fx fy fz
2 1 1.62332 1.66863 -0.681255 -0.282889 -3.25185 -0.636516 0.278557 -4.02706 -0.487687 0.0134676 -0.358009
4 1 4.35789 1.61575 -0.756261 0.990702 -5.33602 3.45801 0.23707 -4.04379 0.393146 -0.00132588 0.293798
11 1 0.115605 3.14255 -2.18393 0.617832 -0.194419 3.50607 0.22686 -3.96857 -0.383246 -0.222652 -0.217708
101 1 0.126621 0.284403 0.827362 -1.57173 1.46596 2.1275 0.152564 -4.05071 -0.207581 0.125817 -0.378829
103 1 2.85007 0.270771 0.889314 0.287695 0.367304 -1.8153 0.243511 -3.92574 0.684218 -0.010226 -0.105826
111 1 0.168447 3.08626 0.854862 -2.2925 0.592843 0.179022 0.132978 -4.0398 0.143951 0.158402 -0.355426
113 1 2.87763 3.13123 0.912542 -1.71434 2.42111 -1.1208 0.335821 -3.99561 -0.131483 -0.00819884 0.145781
13 1 2.94284 3.10367 -2.21407 -0.0706192 -1.95523 0.774801 0.0740555 -3.94449 -0.280434 -0.169976 0.257344
6 1 7.17995 1.58532 -0.688279 -1.53139 -1.81767 -2.43971 0.230147 -4.01241 0.292641 0.718909 -0.0407065
17 1 8.63608 3.25517 -2.16191 -1.24355 -0.0988133 -0.860341 5.12399 -4.00127 -0.322613 -0.802995 0.08473
105 1 5.90739 0.22905 0.856371 0.812795 -1.48127 -4.16198 0.295201 -4.01048 -0.261544 -0.0394546 -0.135931
115 1 5.79048 3.13764 0.84105 -0.932742 0.818202 0.0439582 0.182967 -3.9836 -0.41261 -0.716919 -0.241412
117 1 8.60233 3.08029 0.92457 0.475293 0.415756 -1.302 0.169251 -3.98056 -0.0455278 -0.15356 -0.961714
15 1 5.86915 3.09703 -2.17448 -1.1078 -3.23994 -0.243916 0.297108 -3.92722 -0.264582 0.302623 -0.342294
8 1 9.98472 1.71462 -0.808102 1.02028 2.64764 -1.65962 0.412891 -3.98688 -0.49112 -0.0731673 0.788989
9 1 11.3244 0.287262 -2.12954 -0.628437 1.37052 0.162777 0.410143 -3.98328 0.710981 -0.0698077 -0.186706
10 1 12.8557 1.68831 -0.755711 -0.261261 2.58464 0.684826 0.139718 -3.96272 -0.484958 0.201076 0.0193359
109 1 11.3921 0.306018 0.825291 4.17545 -4.26001 3.01885 0.170429 -3.993 -0.250956 -0.241022 -0.380688
119 1 11.4562 3.11085 0.769095 -0.877516 0.612354 1.13148 0.157399 -4.03508 -0.332897 -0.575886 -0.278599
12 1 1.52356 4.6359 -0.787451 1.18436 1.40208 1.05812 0.585386 -3.97892 0.229314 -0.524682 0.364811
14 1 4.34915 4.42365 -0.584669 -0.761965 1.11821 -1.53086 0.276379 -4.03772 -0.113974 0.114437 -0.672759
22 1 1.54026 7.32431 -0.759114 0.529166 1.27637 -0.648244 5.70805 -3.95823 -0.153737 -0.0473262 0.430672
23 1 3.01689 5.92797 -2.20524 4.21453 0.286138 -0.65637 0.225005 -3.95974 -0.564911 -0.197993 -0.340351
24 1 4.35552 7.36387 -0.686461 0.718611 1.41969 0.425215 0.109834 -3.97292 -0.0275714 -0.0153204 -0.23303
121 1 0.132435 5.82793 0.847656 -2.35864 3.10392 -0.471262 0.19011 -3.96867 0.353662 0.147255 0.062497
123 1 3.01618 5.86763 0.946242 1.00139 1.8653 -1.24788 0.259908 -4.02969 -0.073313 -0.0238148 -0.210031
16 1 7.14135 4.5226 -0.606609 0.603539 0.154603 0.133915 0.159724 -3.99799 0.0737019 -0.387921 -0.443895
25 1 5.70759 5.92495 -2.11177 -0.827089 1.1553 2.35682 4.97829 -4.05758 0.196582 -0.819302 -0.687168
26 1 7.1412 7.16975 -0.737748 -0.0337704 2.62343 0.778117 5.12246 -3.90002 -0.0595143 0.778388 0.418161
125 1 5.74127 5.95799 0.892499 -0.136011 -2.75282 -0.154075 0.138691 -4.11504 0.178133 0.218893 -0.019778
127 1 8.57446 5.88387 0.752328 -1.51658 -3.67076 0.00771245 0.384157 -4.00345 0.225787 0.0162319 0.503113
18 1 10.0587 4.47472 -0.684935 2.01504 1.15568 0.108705 0.216123 -3.9986 0.183278 0.0717544 -0.0112704
20 1 12.7939 4.54238 -0.719759 -0.022531 3.00342 -1.17168 0.0624752 -4.05182 -0.164955 -0.0051129 0.191414
28 1 10.1169 7.35391 -0.592588 1.08986 -1.21663 1.80841 0.412239 -3.97333 -0.227504 -0.248753 -0.0232234
29 1 11.4127 5.98723 -2.21536 1.3822 1.47477 -0.555896 0.0541002 -4.03878 -0.591396 -0.566235 -0.430667
30 1 12.8531 7.28188 -0.621994 0.362699 -0.519128 0.486825 0.137264 -4.04842 0.10939 0.658859 0.0465283
129 1 11.3642 5.90889 0.899898 -0.995542 1.01394 2.2528 0.111441 -4.04713 0.159295 -0.183572 -0.107859
32 1 1.48279 10.1923 -0.756505 2.66336 -1.18469 0.933482 0.234867 -4.08656 0.306614 -0.620467 0.328047
34 1 4.32744 10.195 -0.755554 -3.42019 -1.92301 1.41173 0.195689 -4.00553 0.0984579 -0.462984 0.37293
43 1 2.92107 11.628 -2.21059 2.17426 0.782241 3.50485 0.119633 -4.0554 -0.335782 -0.438903 -0.483941
133 1 2.87707 8.77788 0.88226 -1.44944 0.975575 0.710255 0.0919519 -3.96132 0.113899 -0.0202054 0.231518
141 1 0.146359 11.6297 0.76366 -2.20193 -7.04944 -1.51669 0.325135 -4.0587 0.0841702 0.348795 0.115412
143 1 2.92416 11.521 0.857779 -0.572232 1.1909 1.77002 0.165124 -4.06693 -0.117312 -0.159591 -0.465512
36 1 7.17897 10.1662 -0.637418 0.10168 3.47717 0.174941 0.169216 -3.92509 -0.278026 -0.0912127 0.272683
47 1 8.63625 11.4798 -2.12672 -1.46078 2.66256 0.234251 0.290365 -4.00743 -0.164104 -0.275702 -0.577113
135 1 5.71447 8.72482 0.961391 -0.880733 0.590278 -0.109653 5.64187 -3.98417 0.585288 0.181187 -0.292196
137 1 8.61908 8.74613 0.790558 -4.19951 1.4167 -2.48788 0.370014 -4.03125 -0.0153234 -0.3063 -0.0984734
145 1 5.78797 11.4174 0.860473 0.913579 -3.10787 0.676852 5.64551 -3.98412 -0.019182 0.18177 0.367157
147 1 8.63173 11.5707 0.967159 -2.52053 -2.66134 -2.016 0.194225 -4.01444 -0.128936 0.50373 -0.675809
37 1 8.64539 8.6808 -2.09572 -0.410704 1.96136 0.795798 0.374277 -4.06591 -0.27727 -0.00569239 -0.106909
41 1 14.1834 11.5242 -2.13079 -1.35835 -5.95404 3.83557 0.250627 -4.01382 0.113517 0.224828 -0.321006
131 1 14.189 8.78043 0.983094 -1.59748 2.05417 3.03081 0.412397 -3.93885 0.492935 -0.262263 -0.11915
38 1 10.1092 10.2499 -0.566301 0.647054 3.02786 -2.05404 0.497498 -4.01974 -0.333288 -0.674976 0.541052
39 1 11.3428 8.78317 -2.17938 2.80774 -0.622395 -1.00191 0.223953 -4.01996 0.312192 0.100284 -0.0554689
40 1 12.8549 10.1114 -0.548115 -1.75728 -0.634733 -0.267602 0.250289 -4.02355 -0.172154 -0.231581 -0.235097
139 1 11.4119 8.69776 0.948093 -0.425376 2.4171 -0.0430739 0.111084 -4.04962 -0.0495782 0.601652 -0.225213
149 1 11.4267 11.5446 0.949011 -0.904464 -0.906018 0.248794 0.178909 -4.02128 -0.109035 0.161288 -0.251263
49 1 11.351 11.4979 -2.14961 -3.94296 -1.72452 -3.57845 0.145423 -3.9763 0.15657 0.0730738 -0.399908
42 1 1.60077 12.9976 -0.773705 -0.841826 -0.173751 0.753914 0.433168 -4.01156 -0.572554 0.163565 0.00259392
44 1 4.30049 12.9516 -0.789539 -1.17519 0.372824 -0.13007 0.112434 -4.08013 0.313525 0.0431138 0.165178
52 1 1.58776 15.7356 -0.534368 -0.585983 1.26946 1.71295 5.14751 -3.90364 -0.332 -0.176288 -0.24885
54 1 4.38463 15.6552 -0.689943 0.269637 0.959657 1.9614 0.276398 -4.0366 -0.441198 0.392508 -0.126639
153 1 2.9946 14.2978 0.871464 -3.03426 -0.361765 3.65674 0.166844 -3.95934 -0.56679 0.00835348 -0.0448672
46 1 7.13899 12.8477 -0.715592 -0.042375 -0.703018 -2.37022 0.227032 -3.97558 -0.311081 0.518437 0.487596
56 1 7.08452 15.7726 -0.772416 0.19616 0.505449 -1.21975 0.259167 -4.04004 0.515496 0.0100723 -0.310549
155 1 5.76502 14.3443 0.812127 -0.699273 2.50818 -2.71856 0.104041 -4.01308 -0.011975 -0.142191 0.0499771
157 1 8.53251 14.4644 0.89979 1.77519 1.9958 -4.01974 5.14061 -4.0229 0.121044 -0.299896 -0.0259055
57 1 8.49816 14.3386 -2.08723 5.27468 2.46447 0.151665 0.517872 -3.91523 0.461338 -0.194711 -0.959813
51 1 14.0057 14.3518 -2.23341 5.08997 3.62125 -2.07853 4.85412 -3.92597 1.20523 -0.0170571 0.0252357
151 1 14.2009 14.4155 0.880219 -4.71089 2.01634 -0.85659 0.125084 -3.93266 0.161204 -0.519437 0.136999
48 1 9.93985 13.0563 -0.662745 2.86016 2.34417 0.701272 5.12483 -4.00128 0.3291 -0.325003 -0.131197
50 1 12.7181 12.9904 -0.665562 0.559624 -1.36974 -0.820506 0.1815 -4.00916 -0.188286 0.0602495 0.355453
58 1 9.99316 15.7186 -0.681555 -3.3381 -1.51398 5.38263 0.175684 -4.03493 0.0762946 0.57697 0.190024
60 1 12.7967 15.7437 -0.67568 1.53771 1.90327 -4.70531 0.113161 -4.02963 -0.0603732 0.113137 0.280536
159 1 11.3491 14.3264 0.932418 -0.265735 -1.65506 -3.98071 0.153442 -4.01302 0.236725 0.0508934 -0.0774013
62 1 1.43944 18.5161 -0.638659 0.272627 0.831543 -0.200207 0.116782 -3.97082 0.217985 0.354972 -0.347937
64 1 4.38586 18.6552 -0.634317 1.24428 1.0664 2.86252 5.25824 -3.96896 0.00597873 -0.969451 0.0111263
163 1 2.94245 17.1558 0.762263 0.341627 2.40032 0.506019 0.40239 -3.98738 0.231549 0.115096 -0.0309408
171 1 0.141802 19.9783 0.971158 -0.0590841 -1.37942 4.27312 0.174098 -4.07511 -0.354937 -0.17479 -0.582342
173 1 2.89555 19.9823 0.848595 0.785649 -1.23368 2.3689 0.148231 -4.04968 -0.402881 -0.000511096 0.560377
66 1 7.24355 18.6165 -0.635125 2.75597 -4.35103 0.905848 5.53516 -4.08392 -0.421796 0.265378 0.404037
67 1 8.57677 17.1461 -2.20875 -4.30079 -3.56988 1.31798 0.0495758 -4.09107 -0.288046 -0.218545 -0.156459
165 1 5.78304 17.093 0.802744 1.97311 1.99329 -0.167527 0.242602 -3.99046 -0.0539469 0.0100414 0.369723
167 1 8.56005 17.078 0.747531 1.63712 1.01306 -0.622391 4.72538 -4.04317 0.27173 0.0468559 0.750473
175 1 5.70632 20.007 0.875443 -3.42076 -2.85137 2.01629 0.135367 -3.99868 0.138367 -0.19575 -0.0332983
177 1 8.58858 20.043 1.08812 -1.05917 0.80188 -0.731301 1.01058 -3.96871 0.206734 -0.662655 -0.538844
75 1 5.71713 19.9361 -2.22407 -4.53949 -0.9021 2.29786 0.131565 -4.00508 0.0121381 0.10452 -0.420598
65 1 5.67248 17.193 -2.18463 -1.31158 -3.63153 -0.620776 0.336233 -4.04681 0.144288 -0.230745 0.299913
161 1 14.1852 17.2046 0.97657 -8.06951 -0.86164 0.0732044 0.219166 -4.07408 -0.191119 -0.161774 -0.210421
68 1 9.83757 18.5862 -0.607857 1.01621 0.95189 3.77626 5.32483 -4.04996 0.505674 0.464523 -0.0962347
70 1 12.7582 18.5098 -0.649719 -2.75978 -0.241021 0.901339 0.15756 -3.93097 0.415641 0.500342 -0.399952
169 1 11.4357 17.1907 0.864532 -0.050047 0.778513 1.36961 0.111334 -3.99467 -0.542892 0.223493 0.258196
179 1 11.4548 19.9395 0.952904 0.478562 4.61523 -0.247094 0.250394 -4.03198 -0.269548 0.0215491 -0.424609
69 1 11.3235 17.1806 -2.12444 2.51938 -0.439877 2.89062 0.220154 -4.00066 0.44528 -0.154796 -0.461621
71 1 14.189 20.001 -2.11755 -3.02828 1.71166 0.793185 0.306494 -3.89079 0.186256 -0.470279 0.161366
61 1 14.2026 17.0274 -2.15924 -2.79754 0.110739 5.17862 0.298386 -3.95714 0.00220261 -0.140428 0.271367
72 1 1.54936 21.3951 -0.735237 2.3338 -3.4761 -2.56089 0.177107 -4.07505 -0.111902 -0.358312 -0.0918101
74 1 4.24289 21.3195 -0.601256 -0.775897 2.76848 -0.309503 0.37196 -4.13267 0.324922 0.0197955 -0.106161
82 1 1.5098 24.075 -0.810138 -0.197856 1.54937 -4.05427 0.294979 -4.05454 -0.137885 0.544162 0.232216
84 1 4.24694 24.1216 -0.658806 1.75243 2.83472 -4.12876 0.397298 -3.96595 0.739673 0.238477 -0.411893
181 1 0.128659 22.763 0.811377 -3.03311 -1.67311 -0.629939 0.0474561 -4.04594 -0.210419 -0.21943 -0.0900373
183 1 2.89382 22.7594 0.767592 0.572942 -1.11899 -0.365379 0.163186 -4.07671 -0.055357 0.23532 0.449199
76 1 7.14056 21.2635 -0.685849 -0.691281 0.193514 1.05787 5.322 -3.90706 -0.0277675 0.516856 0.0281459
86 1 7.25436 24.2668 -0.68314 -2.43118 3.29649 -1.15762 5.6432 -3.90484 -0.255336 -0.242668 0.025064
185 1 5.72509 22.8979 0.772819 3.67767 -2.14848 -3.35625 0.472722 -4.0288 0.347942 -0.553488 -0.287665
187 1 8.47118 22.692 0.949459 -0.732136 -0.532565 -1.73565 0.594062 -4.01181 -0.0520191 0.210163 -0.189694
78 1 9.92402 21.3232 -0.743056 -2.14879 -1.2859 1.20999 0.224319 -4.02349 -0.117198 0.0836932 0.969169
80 1 12.7264 21.3466 -0.665795 -2.02506 0.894117 1.33119 0.064499 -3.97317 0.791938 0.216071 -0.184258
88 1 9.99398 24.1702 -0.641126 -1.34963 2.3224 -3.76156 0.205353 -4.017 -0.399213 -0.0643706 0.0825871
90 1 12.8226 24.1983 -0.777153 -3.32555 -1.34099 0.789537 0.182263 -3.96801 -0.766408 -0.0776483 0.613164
189 1 11.404 22.6532 0.792749 1.1462 2.87937 3.03823 0.289154 -3.93254 0.258406 0.675581 -0.188784
92 1 1.49183 27.0716 -0.696857 -1.55268 0.823337 -0.21304 0.0691544 -3.97901 -0.377175 -0.10077 0.138187
93 1 2.95679 25.6072 -2.21362 -2.98218 -1.24306 2.03838 0.1714 -4.00082 -0.273021 0.14941 0.0554722
94 1 4.31233 27.0701 -0.534128 -2.42482 -0.468398 -1.32983 0.684197 -3.95911 -0.232437 0.196882 -0.620223
193 1 2.87926 25.4829 0.78284 -1.0862 0.475835 1.41936 0.414951 -3.96166 -0.0591872 0.871308 -0.0653982
5 1 5.72241 28.2956 -2.15083 2.69086 -0.906142 0.0342517 5.0663 -4.00461 0.129349 0.100519 -0.488587
107 1 8.62684 28.3911 0.893242 1.62718 -2.83475 -3.52836 0.29767 -4.06799 0.0217561 0.639034 -0.449238
96 1 7.19496 27.0059 -0.694573 3.8854 -2.09663 -3.2721 0.0384985 -4.05788 -0.0328949 0.126644 0.536245
195 1 5.7699 25.6353 0.798309 -1.7019 -1.17403 1.74296 0.134135 -3.95737 0.0743254 0.00554059 0.65378
197 1 8.65402 25.6862 0.852686 -0.592902 -0.620959 0.00800132 0.322225 -4.0565 -0.271015 -0.287747 0.447691
7 1 8.51249 28.4072 -2.12911 0.305773 -1.36188 3.04787 0.342636 -3.99334 -0.149071 0.15025 -0.43823
191 1 14.1954 25.5315 0.80781 -0.0885336 -4.4938 -0.48509 0.208054 -3.93245 0.322805 0.491946 -0.797541
98 1 9.85719 27.0277 -0.740142 2.60699 4.64685 0.62246 0.399834 -4.10014 0.775316 0.209473 -0.0995224
100 1 12.8111 27.1397 -0.683627 0.688756 2.41483 -3.36628 0.110779 -3.99344 0.31643 -0.516622 -0.0033124
199 1 11.3947 25.7747 0.854308 -1.77748 -0.753815 0.440887 0.583709 -3.94862 0.733628 -0.681592 -0.313519
99 1 11.3966 25.6653 -2.16966 -3.11862 -0.640777 0.494149 0.140248 -4.02566 -0.159598 0.1017 0.119438
102 1 1.43258 1.58866 2.4277 7.38627 -3.29026 1.48818 0.296165 -4.0582 0.319719 -0.031556 -0.115352
104 1 4.40471 1.70471 2.33531 -2.62904 -0.431866 -2.50035 0.23128 -3.99719 -0.693898 0.21854 -0.225129
202 1 1.64591 1.56967 5.37167 2.02744 3.5456 -1.59179 4.60493 -4.04629 -0.675499 1.03016 0.165833
203 1 2.94499 0.259696 3.90122 -1.3304 -3.48688 0.0854903 0.129131 -4.06931 -0.187628 -0.00635492 -0.341868
204 1 4.18458 1.68524 5.4548 -0.935437 1.48785 2.63114 4.52792 -4.01687 1.01231 -0.303992 -0.459471
213 1 2.88677 3.08084 3.86615 -2.28947 -0.845795 -1.07431 0.354872 -4.04771 -0.046373 0.237694 -0.318934
106 1 7.15632 1.63052 2.31989 0.736671 -1.16949 0.0239501 0.242509 -4.08455 0.676349 0.510091 0.659245
205 1 5.64874 0.299036 3.76358 2.33469 0.995414 0.291621 4.64212 -3.93896 0.636949 -0.468239 0.769638
206 1 7.2548 1.68985 5.41537 -1.46106 -1.55409 1.7364 4.78495 -3.97998 -0.425372 -0.840106 -0.43955
207 1 8.58474 0.236208 3.97884 1.31666 3.04051 1.49325 0.1515 -3.98843 0.180017 0.175724 -0.679649
215 1 5.78167 2.95842 4.03245 -1.49422 -2.50707 3.51511 0.524139 -3.99499 -0.527315 0.525677 -0.19607
217 1 8.60442 3.0921 3.92492 -1.80041 2.92479 -5.24384 0.122157 -4.04236 -0.332814 -0.327797 0.091776
201 1 14.2143 0.277593 3.98256 -0.76465 1.66164 -3.30675 0.320366 -4.03676 -0.255157 -0.216877 0.0985464
211 1 14.1953 3.09372 4.03768 0.131749 -3.47244 0.658656 0.271828 -3.98449 0.469106 -0.830326 -0.143636
108 1 9.98023 1.81548 2.44978 1.78008 -0.0382443 0.481447 5.57642 -3.93514 0.0962526 -0.922483 0.113023
110 1 12.7567 1.63776 2.35773 0.143622 0.261967 0.471904 0.161555 -3.91845 0.252656 0.164766 0.637957
219 1 11.4042 3.08595 3.95026 2.96876 -3.6 -0.306264 0.0658867 -3.96985 -0.221147 0.107649 -0.0686722
112 1 1.47335 4.44722 2.51311 -2.08488 5.53109 1.88305 0.241432 -3.97583 0.0247549 0.332708 -0.112392
114 1 4.45714 4.53943 2.52578 0.408107 -1.46821 1.68028 5.14215 -4.05017 -0.32985 -0.498583 -0.198035
122 1 1.5387 7.19477 2.4796 -2.178 2.10286 -1.52883 0.266728 -3.91946 -0.50362 0.488612 -0.139771
124 1 4.30599 7.3213 2.45647 -1.70609 -0.894295 0.386355 0.158942 -3.96095 -0.269217 0.247165 -0.0876549
223 1 3.00176 5.86832 3.99052 -2.9209 -3.41332 -1.19244 0.120055 -4.04218 0.30436 0.156928 0.512685
116 1 7.08446 4.43511 2.4569 -0.717838 -0.661302 1.69127 5.2451 -4.03286 0.243437 0.626686 0.0202594
126 1 7.33953 7.39572 2.43546 1.37971 -3.46356 0.697126 0.495283 -3.92349 -0.546029 -0.599297 -0.377478
216 1 7.15048 4.45322 5.37311 0.663868 1.20315 1.59813 0.342615 -4.07669 0.0965605 0.753144 0.271197
225 1 5.7941 6.05956 3.90379 0.299468 -1.75276 -1.18853 5.54121 -3.98793 -0.200528 -0.392884 -0.0352867
227 1 8.61587 5.8789 3.91049 -0.532809 -0.371899 0.126652 0.135083 -3.99669 0.0373143 0.00858744 -0.0147425
221 1 14.1524 5.86373 4.00485 0.796103 -1.93786 -0.0692733 0.129211 -4.0269 -0.180466 0.3951 -0.351939
118 1 10.0291 4.4796 2.4192 -2.00022 0.251406 -1.34662 0.103715 -4.07397 -0.446142 -0.0923319 -0.246781
120 1 12.7727 4.51546 2.35415 -2.93314 -0.0391201 0.674702 0.115795 -4.03791 0.255888 -0.220117 0.205516
128 1 10.0124 7.32217 2.36963 -2.7644 2.28321 3.1472 0.13152 -4.05758 -0.671441 -0.0262836 0.0522542
130 1 12.7448 7.26336 2.37565 -1.8326 -3.86476 -3.53257 0.165316 -4.05288 0.362234 0.0898268 0.426666
218 1 9.92391 4.44006 5.48762 2.54663 2.02038 1.45237 0.0887684 -4.0588 0.160079 0.175273 0.296497
220 1 12.7806 4.44772 5.47926 -0.879614 -1.25736 1.20844 0.0642033 -3.93098 -0.388379 0.220487 0.212622
229 1 11.2652 5.91426 3.98428 0.58398 1.74186 -1.1864 0.302164 -4.04479 1.02604 -0.150392 0.403047
230 1 12.8446 7.35538 5.40309 2.31232 0.678649 1.21522 0.27753 -4.00553 -0.649724 -0.719797 0.0931778
132 1 1.49806 10.2454 2.33519 0.926583 1.77752 2.20689 0.204544 -3.99472 -0.175762 -0.508506 0.461509
134 1 4.33421 10.2257 2.47474 -1.95039 -2.01599 -1.69927 5.39509 -3.97088 0.208812 -0.468061 0.56353
233 1 2.86938 8.7146 4.00749 -0.683116 0.194601 5.31636 0.146487 -3.94635 0.640884 -0.0122119 -0.655301
234 1 4.30212 10.2221 5.48552 -0.621179 0.157015 -0.123602 5.40447 -4.01042 0.648682 -0.621386 0.302817
241 1 0.149986 11.5192 3.90524 -2.41095 0.904273 -0.0212207 0.0935666 -4.03425 -0.368541 -0.310919 -0.0154954
243 1 2.87755 11.525 3.8515 -0.234391 0.744033 0.670144 0.250993 -4.00503 0.156451 -0.174387 -0.136461
136 1 7.34978 10.1327 2.45169 0.629619 0.98562 1.20116 4.98028 -4.06041 -0.456924 -0.0345763 -0.360831
235 1 5.87066 8.81598 3.8759 0.465343 -1.43871 1.4062 0.386847 -4.02043 -0.763773 -0.340341 -0.108291
237 1 8.63235 8.75913 4.10312 2.56455 0.935182 0.542097 0.379132 -4.09731 -0.0790263 0.302652 -0.221412
245 1 5.87987 11.5851 3.94177 0.240801 -0.541356 -0.243051 0.424529 -4.00977 -0.418468 -0.0268414 -0.243519
247 1 8.6244 11.498 4.05311 0.432483 -3.51449 2.45946 0.200086 -4.08557 -0.229421 0.45078 -0.0877706
231 1 14.2058 8.74973 3.90419 -0.187028 1.52542 1.17023 0.0869074 -4.05811 0.457202 -0.000126763 -0.405378
138 1 9.92992 10.142 2.38336 -1.64946 -2.47072 4.24093 5.2287 -4.10108 0.855425 -0.129774 0.182733
140 1 12.8378 10.2224 2.3917 -3.06779 0.590986 0.953237 0.196429 -4.06732 -0.737614 -0.462332 0.423083
239 1 11.364 8.67474 3.91171 1.07823 -1.10089 5.00007 0.100369 -4.05261 0.510919 0.357879 0.0325753
240 1 12.788 10.0949 5.33165 0.473313 1.12475 -2.36237 0.388853 -3.94543 0.0317335 0.474151 0.538667
249 1 11.3994 11.5636 4.04211 0.00818624 4.09037 -1.73351 0.255324 -4.03535 -0.297428 -0.466814 -0.305387
142 1 1.52181 13.0509 2.49666 -1.28477 -4.17543 2.9049 0.359302 -4.05589 0.211209 0.0297769 0.0856407
144 1 4.29805 12.8216 2.3246 1.81958 -2.20134 0.0142737 4.87909 -3.9965 0.688622 0.556842 0.312008
152 1 1.51339 15.8576 2.47191 -0.669006 2.84052 -0.820189 5.33016 -4.10932 0.224873 -0.980199 -0.505816
154 1 4.25725 15.7179 2.38364 2.46855 -1.35996 -1.82568 0.308009 -4.0014 0.470266 0.581504 -0.044368
242 1 1.53992 12.9165 5.45388 0.280113 3.4737 -1.1283 0.12308 -4.07161 0.165088 0.0202432 -0.31239
244 1 4.24982 12.7782 5.48143 2.14938 -0.0921022 -0.749942 5.3256 -4.01895 0.409837 0.58184 0.0379635
251 1 0.128475 14.4623 4.00726 2.68999 -0.1114 0.508103 0.228112 -4.00294 -0.308197 -0.214229 0.219804
252 1 1.63436 15.7834 5.36323 -3.12021 0.366244 0.726554 0.484582 -3.96549 -0.128327 -0.357754 0.0495543
253 1 3.02926 14.3678 3.98114 0.643288 -2.70259 -2.00417 0.359807 -3.98775 -0.336777 -0.0551898 0.125781
146 1 7.13468 12.9886 2.39851 1.04428 0.1527 -2.62964 0.132689 -3.88321 0.786753 -0.146541 0.27196
156 1 7.1141 15.8395 2.42638 -5.45427 -4.00032 2.42238 0.295849 -4.01208 0.38308 0.145736 -0.0227707
255 1 5.79332 14.3612 3.89536 0.949383 2.2935 -3.25327 0.181774 -4.01811 -0.521742 -0.00385056 0.0864908
256 1 7.19239 15.8423 5.38562 -0.861153 0.781607 -0.146585 0.387215 -4.03688 0.592475 -0.28296 -0.180295
257 1 8.60857 14.4287 3.99818 -2.00567 3.54744 2.76289 0.0745339 -4.00201 -0.472389 -0.634877 -0.238188
148 1 10.0789 12.8625 2.49924 2.53119 -0.204599 1.59625 5.21658 -3.97871 -0.618214 0.282515 0.224867
150 1 12.8144 12.9078 2.46419 0.842405 -1.04171 -0.584461 0.160397 -4.07628 0.454569 0.19171 -0.132804
158 1 10.0599 15.8093 2.48161 1.95172 -4.28031 -2.67566 0.260531 -3.97205 0.250503 -0.0234902 -0.255627
160 1 12.7974 15.8078 2.37871 2.05154 2.79304 -0.0709358 0.198097 -4.0127 -0.162546 -0.167475 0.327737
250 1 12.9049 12.9601 5.43242 1.45982 -1.9964 -1.75047 0.269521 -4.04257 0.031012 -0.0906862 0.311383
259 1 11.5154 14.2983 3.94016 2.36546 0.76793 -0.871017 0.268452 -4.03956 -0.686846 0.305657 -0.0520919
162 1 1.61205 18.4318 2.4117 0.103087 0.473685 0.329909 5.05059 -4.01596 -0.14025 0.297258 0.00951882
164 1 4.41893 18.6151 2.29438 -0.211573 3.22505 -5.20284 0.353196 -4.01093 -0.537444 -0.579975 0.23709
262 1 1.64124 18.6991 5.46977 -1.57751 0.894061 -4.43727 5.05973 -4.04455 -0.887395 -0.46808 -0.169173
263 1 3.02324 17.1738 3.92644 -2.37006 -0.133771 0.32695 0.26784 -4.04929 -0.333765 0.469751 0.377857
271 1 0.239882 19.931 3.83216 -2.9132 -1.24747 -1.34561 0.605617 -4.02658 0.0506042 0.25676 0.219315
273 1 3.06119 20.0027 3.94298 0.40391 -0.0741893 3.19324 5.44337 -4.02546 -0.0530528 0.0879855 -0.00722085
166 1 7.16241 18.5363 2.39289 0.698547 0.150344 -2.49931 0.182134 -4.06591 0.0787548 -0.116573 -0.169822
265 1 5.71847 17.1429 4.06557 -1.6126 -0.82668 -3.54668 0.447281 -4.03313 -0.479535 0.246532 0.0563557
266 1 7.25348 18.553 5.3869 1.95445 3.37989 -0.145865 0.556945 -3.95216 -0.439224 0.0986376 0.211322
267 1 8.63962 17.1234 3.8662 1.62128 1.24999 -1.44411 0.269075 -3.99311 -0.40015 0.409796 0.0802869
275 1 5.66392 19.9514 3.94943 0.0670137 -1.38317 -3.87798 5.12959 -4.02316 0.675223 0.268956 0.263537
277 1 8.52362 20.0544 3.93844 0.898333 -0.0775842 -0.479706 0.257722 -4.05325 0.539592 0.345061 0.148594
261 1 14.1769 17.1487 4.02146 3.22524 -0.724689 1.23685 0.357752 -4.06062 -0.0184798 0.4422 -0.266076
168 1 9.9888 18.5753 2.43677 -3.61858 0.233632 -1.83299 0.212512 -3.98462 -0.227773 -0.700187 -0.00575634
170 1 12.8038 18.6463 2.54533 0.900172 4.64776 -2.52583 0.337559 -4.04537 0.00156962 -0.41808 -0.23458
269 1 11.4148 17.1891 4.12992 1.22914 3.37173 -1.05524 0.404254 -4.00852 0.546516 0.224894 -0.851016
270 1 12.909 18.7314 5.47516 -1.75346 -1.91228 -0.862528 0.537128 -3.9963 -0.202735 -0.271534 0.814977
279 1 11.3598 20.0486 3.91605 2.0114 -4.45816 0.994583 0.270894 -3.96952 -0.479919 0.111769 0.0984186
172 1 1.47279 21.4257 2.43995 2.33301 -0.225112 2.95214 0.278237 -4.02976 0.914529 0.101784 0.165567
174 1 4.32705 21.4567 2.28307 -1.27528 -0.710527 -1.51037 0.279276 -4.03727 -0.282569 0.117863 0.0274038
182 1 1.5749 24.1646 2.39122 -0.784188 -3.79054 -2.16947 0.0651676 -4.05512 -0.746749 0.411591 0.350655
184 1 4.3073 24.238 2.34754 -0.587332 0.565944 -1.32797 0.145343 -4.02346 0.143356 -0.187208 -0.579855
272 1 1.50093 21.4332 5.39286 -1.3891 0.701157 2.48604 0.378872 -4.0797 -0.0250813 -0.295102 0.797704
281 1 0.183488 22.7914 4.00415 -2.74019 0.616667 0.622568 0.159949 -3.9678 -0.344783 0.303712 -0.231811
283 1 2.92311 22.8102 4.02234 1.18139 2.06881 4.32688 0.181417 -3.96815 0.530529 0.256617 -0.35396
176 1 7.06694 21.3141 2.46113 -3.95137 -1.5893 -1.01736 0.395169 -4.02943 0.295272 -0.279255 -0.267972
186 1 7.17879 24.1447 2.29677 2.78581 2.06017 1.88695 0.194651 -3.9407 0.125396 0.930867 -0.288185
285 1 5.85589 22.7635 3.81137 1.31531 1.02106 -0.50399 0.554297 -3.96262 -0.705815 0.588042 1.04875
287 1 8.6565 22.7436 3.85828 2.42 3.87829 -0.705154 4.86814 -4.13148 -0.184764 0.457121 0.454811
178 1 9.99102 21.4199 2.35237 -1.13098 -1.50552 3.15931 0.249289 -4.05268 0.660062 -0.161456 -0.233017
180 1 12.8404 21.4228 2.48754 -0.471497 0.0061306 0.269058 0.302062 -4.14198 0.304911 -0.00090361 0.0273344
188 1 10.0407 24.0693 2.24435 -1.30348 -2.27273 0.479064 4.77139 -3.92903 -0.0581628 1.31204 0.0353738
190 1 12.925 24.1389 2.36284 -1.55903 -2.12372 1.13416 0.402466 -3.9301 -0.639722 0.183852 0.258723
280 1 12.8739 21.3633 5.4072 1.61778 1.13426 1.57654 0.299687 -4.07166 0.165358 -0.0729478 -0.00991108
289 1 11.3072 22.8471 3.94392 -3.96248 4.07387 -0.259648 0.494144 -4.0473 0.379889 -0.1886 0.176376
290 1 12.8777 24.1232 5.46428 1.06046 -1.98762 3.24564 0.238703 -4.04238 -0.235073 0.0787887 0.207366
192 1 1.54582 26.9795 2.42467 0.832332 -0.820942 0.130328 0.148765 -4.07165 0.0606592 0.119739 0.235881
194 1 4.33343 27.1078 2.36629 -1.61671 -3.20912 1.28134 0.252305 -4.00925 -0.0849641 -0.366668 -0.587412
291 1 0.123486 25.6243 4.06356 -1.91934 -0.395923 -0.219087 0.392432 -3.96851 0.318241 -0.148796 -0.526859
292 1 1.58125 27.1181 5.37815 0.521729 -0.104332 -0.21211 0.275568 -4.07355 0.052657 -0.638224 -0.220044
293 1 3.0799 25.6086 3.91544 2.80973 1.17343 -0.298043 5.77395 -3.95317 -0.578423 -0.269835 0.638484
294 1 4.2495 27.1204 5.45669 -1.17778 2.9951 1.58236 0.253403 -3.99799 0.659985 -0.141837 -0.292979
196 1 7.3038 27.0489 2.51054 3.37805 -2.98627 4.17109 4.84734 -3.96571 -0.745902 0.131902 -0.758703
295 1 5.73558 25.636 3.8942 2.43808 0.681994 -1.51506 0.160902 -4.02624 0.158508 -0.241202 0.350575
296 1 7.17419 27.0665 5.36779 0.309675 6.50899 -1.89168 0.252338 -3.9398 -0.00226378 0.46147 -0.301666
297 1 8.56397 25.5256 3.94151 -0.134748 1.31643 -3.31811 0.352194 -4.02441 0.992078 0.244985 -0.340152
209 1 11.3537 28.3011 4.00974 -0.393176 -1.47754 0.78913 5.82233 -3.90726 0.483733 0.482947 -0.382564
198 1 9.95313 27.0869 2.30318 0.689763 -0.698924 -1.31982 0.312844 -3.88195 0.317818 0.00902284 0.828701
200 1 13.0099 27.0067 2.35805 5.30296 -0.270392 0.651806 5.44567 -3.94648 -0.751138 -0.0943435 0.2687
299 1 11.357 25.6421 3.98486 0.613569 6.18239 1.53807 6.1613 -3.92548 0.445459 0.152639 -0.259465
301 1 0.190771 0.330155 6.89506 0.5675 -0.168496 -2.46061 4.86758 -4.07562 0.184527 -0.69313 0.368007
302 1 1.52998 1.64637 8.70229 -1.42736 -3.15682 0.972455 0.301793 -4.02865 0.132428 -0.0156767 -0.14644
303 1 2.87995 0.257353 7.05184 0.341516 -0.0404191 -2.60214 0.185579 -4.06605 0.214781 -0.566772 0.115418
304 1 4.29008 1.6221 8.54061 -4.04083 -0.468429 4.02966 0.155564 -3.96961 -0.030272 0.624996 0.510618
311 1 0.149724 2.85167 7.04338 -1.74976 0.28104 0.763369 5.15433 -3.95455 -0.195459 1.09167 -0.635451
313 1 2.89377 2.99568 6.9279 0.148637 -0.416692 -0.495992 0.353327 -3.94647 -0.29806 0.214897 0.407207
305 1 5.63949 0.272746 7.04744 -2.6762 0.601797 -1.53878 0.274951 -3.91493 0.741663 0.180774 -0.66675
306 1 7.16827 1.7968 8.57052 -0.497955 1.38302 -0.554626 0.426321 -3.92246 -0.575554 -0.614401 0.464956
307 1 8.54451 0.339894 7.09265 2.06573 -1.47317 -0.377265 0.325436 -4.0364 -0.299009 -0.991062 0.257209
315 1 5.88369 2.98404 6.96224 0.746495 3.22544 0.384377 5.19799 -4.01932 -0.847196 0.398544 0.0689089
317 1 8.5575 3.091 6.96354 0.877774 1.33708 0.284955 0.0759269 -4.14373 -0.62905 -0.062949 -0.159094
208 1 9.93587 1.5992 5.5063 -2.11946 3.54369 -4.60115 0.12446 -4.11407 0.209259 0.274802 -0.288633
210 1 12.7168 1.62492 5.53522 1.93469 -2.84729 3.21644 0.356841 -3.9843 -0.234208 -0.239382 -0.56213
308 1 9.85407 1.73124 8.52643 -3.32365 0.641461 0.348771 0.206682 -4.01027 0.247138 -0.209318 -0.121971
309 1 11.427 0.271834 7.09052 2.261 -0.338001 1.59023 0.1505 -4.00649 -0.0931094 -0.28381 0.181531
310 1 12.8338 1.67333 8.54809 -2.12593 2.9352 -1.91821 0.170615 -3.9881 -0.0271635 -0.312736 0.218653
319 1 11.2832 3.0542 7.05117 1.40137 -1.12676 -0.599603 0.109288 -4.04963 0.563412 0.305358 -0.279922
212 1 1.5107 4.56417 5.51259 1.71349 1.1107 -0.37813 0.381138 -4.03954 0.117658 -0.632198 -0.0516053
214 1 4.35594 4.34938 5.53107 -3.60792 0.888428 1.10906 4.89426 -4.00803 0.303214 0.46042 -0.643693
222 1 1.54559 7.23945 5.49071 2.60978 -1.28947 -2.65909 0.157684 -4.05187 -0.213222 -0.443529 -0.17737
224 1 4.45542 7.31972 5.52732 2.28078 -2.16034 3.83898 0.300058 -3.99079 -0.651048 0.274977 -0.251057
312 1 1.51633 4.46751 8.50298 6.58074 -1.87872 -2.48992 0.247881 -4.03499 0.147246 0.12986 -0.290808
314 1 4.38482 4.47065 8.62001 1.38421 -0.500902 1.94911 0.157295 -3.95303 -0.304824 -0.414876 -0.453751
322 1 1.50912 7.24612 8.48893 2.77664 -2.04083 2.3912 0.11134 -4.01763 -0.293882 -0.413522 0.229108
323 1 3.05231 5.91185 6.97654 -1.31866 2.39502 -0.268551 0.263971 -3.99684 -0.450902 -0.219841 -0.0654596
324 1 4.3708 7.29584 8.51708 1.4459 0.563605 -1.51929 0.126727 -4.03147 0.180106 -0.573969 -0.215219
226 1 7.22143 7.27669 5.49354 -1.92098 2.73055 -2.00716 0.111398 -4.06941 0.305362 -0.0755811 0.375802
316 1 7.10763 4.57462 8.55585 2.31643 -3.52172 -0.258836 0.358131 -4.04569 -0.368303 -1.04943 -0.0431321
325 1 5.76431 5.8264 6.91787 -2.43851 2.57701 -2.10025 0.255534 -4.01394 -0.158202 0.0224767 0.273437
326 1 7.19795 7.24786 8.46784 -1.71798 -0.00966545 0.572563 0.260749 -4.07016 -0.127331 0.563048 -0.573194
327 1 8.55272 5.78657 7.12269 -1.12912 -0.410511 1.0442 0.525604 -4.01129 0.344042 0.513151 -0.979199
228 1 9.92162 7.27115 5.57396 0.0778168 -0.255412 1.79302 0.261801 -4.03667 0.115965 0.079643 0.265036
321 1 14.1448 5.82456 7.01616 4.06995 0.134137 -0.309495 0.19962 -4.00477 0.0378995 0.279447 0.0240772
318 1 9.98504 4.43593 8.521 1.75132 -4.65897 3.2673 0.0883112 -4.03806 0.0793452 0.179678 0.416064
320 1 12.7757 4.48205 8.52786 1.89733 -3.11783 2.82706 0.187255 -3.97996 0.454908 -0.803404 -0.0892724
328 1 10.0129 7.28399 8.4017 2.65819 -0.927283 -2.4793 0.495212 -4.0054 -0.155779 0.212999 0.30179
329 1 11.4291 5.87426 6.99875 1.9858 -1.38951 -0.786356 0.0732764 -4.03104 -0.007691 -0.149833 -0.499956
330 1 12.8425 7.28945 8.54945 -1.97867 0.420953 -1.07444 0.0944767 -4.0878 -0.114478 -0.0996382 0.169149
232 1 1.56015 10.1641 5.50747 2.12226 0.0705619 -0.681687 0.214132 -4.05736 -0.604708 0.0698939 -0.628049