ITEM: TIMESTEP
193500
ITEM: NUMBER OF ATOMS
2000
ITEM: BOX BOUNDS pp pp pp
1.0838953229856951e-01 1.4221610467701321e+01
2.1677906459713903e-01 2.8443220935402643e+01
-5.0282583728065875e+00 6.2348258372806150e+01
ITEM: ATOMS id type x y z vx vy vz c_csym c_peratom fx fy fz
2 1 1.62332 1.66863 -3.33524 -0.282889 -3.25185 -0.636516 0.280488 -3.91282 -0.278377 0.178962 -0.0154215
4 1 4.35789 1.61575 -3.41703 0.990702 -5.33602 3.45801 6.15836 -3.88212 -0.176817 0.0377788 0.379562
11 1 0.115605 3.14255 -4.97384 0.617832 -0.194419 3.50607 0.264101 -3.82121 -0.270082 0.122454 -0.258308
101 1 0.126621 0.284403 -1.69016 -1.57173 1.46596 2.1275 0.154212 -3.95239 -0.175584 -0.000972407 -0.00457927
103 1 2.85007 0.270771 -1.62261 0.287695 0.367304 -1.8153 0.253677 -3.79746 0.490213 0.275389 -0.0751221
111 1 0.168447 3.08626 -1.66018 -2.2925 0.592843 0.179022 6.34338 -3.89172 -0.28378 -0.163471 0.0101652
113 1 2.87763 3.13123 -1.59728 -1.71434 2.42111 -1.1208 11.7311 -3.85646 0.00102305 -0.00147509 0.119936
13 1 2.94284 3.10367 -5.0067 -0.0706192 -1.95523 0.774801 0.0779456 -3.85038 -0.00834473 0.291833 0.0907051
6 1 7.17995 1.58532 -3.3429 -1.53139 -1.81767 -2.43971 0.238573 -3.87973 0.0212925 0.714124 0.00686497
17 1 8.63608 3.25517 -4.94982 -1.24355 -0.0988133 -0.860341 10.2824 -3.87572 -0.0432276 -0.37739 -0.434275
105 1 5.90739 0.22905 -1.65853 0.812795 -1.48127 -4.16198 5.81659 -3.88281 -0.748789 -0.361083 0.271607
115 1 5.79048 3.13764 -1.67524 -0.932742 0.818202 0.0439582 0.188543 -3.87177 -0.0521738 -0.628078 -0.0687167
117 1 8.60233 3.08029 -1.58416 0.475293 0.415756 -1.302 0.188164 -3.85321 0.0454841 0.27016 -0.687119
15 1 5.86915 3.09703 -4.96353 -1.1078 -3.23994 -0.243916 0.311802 -3.80576 -0.413007 0.00329486 -0.222589
8 1 9.98472 1.71462 -3.47356 1.02028 2.64764 -1.65962 5.58225 -3.87366 0.0956376 -0.19809 0.851729
9 1 11.3244 0.287262 -4.91452 -0.628437 1.37052 0.162777 5.81387 -3.87363 0.623687 -0.0856174 -0.160071
10 1 12.8557 1.68831 -3.41643 -0.261261 2.58464 0.684826 0.155164 -3.8608 -0.0532683 0.339488 0.294672
109 1 11.3921 0.306018 -1.69242 4.17545 -4.26001 3.01885 6.90267 -3.8586 0.00897885 -0.0195628 -0.377475
119 1 11.4562 3.11085 -1.7537 -0.877516 0.612354 1.13148 0.170764 -3.90266 -0.39286 -0.121852 0.501114
12 1 1.52356 4.6359 -3.45104 1.18436 1.40208 1.05812 6.11394 -3.85768 0.267194 -0.503913 0.54383
14 1 4.34915 4.42365 -3.22992 -0.761965 1.11821 -1.53086 0.288764 -3.92022 -0.187353 0.542382 -0.478161
22 1 1.54026 7.32431 -3.42014 0.529166 1.27637 -0.648244 6.15591 -3.83844 -0.167696 0.17801 0.730319
23 1 3.01689 5.92797 -4.99707 4.21453 0.286138 -0.65637 6.01356 -3.84797 -0.163632 -0.173941 -0.619827
24 1 4.35552 7.36387 -3.34091 0.718611 1.41969 0.425215 0.11777 -3.87159 -0.229442 -0.134806 0.239744
121 1 0.132435 5.82793 -1.66803 -2.35864 3.10392 -0.471262 0.202218 -3.85573 -0.0778379 0.137232 0.411421
123 1 3.01618 5.86763 -1.56053 1.00139 1.8653 -1.24788 6.12587 -3.85863 -0.218341 0.240859 0.0211171
16 1 7.14135 4.5226 -3.25384 0.603539 0.154603 0.133915 5.60527 -3.91916 0.0360579 -0.496852 -0.11425
25 1 5.70759 5.92495 -4.89514 -0.827089 1.1553 2.35682 5.30454 -3.90959 0.323795 -0.731325 -0.782473
26 1 7.1412 7.16975 -3.39684 -0.0337704 2.62343 0.778117 5.50357 -3.82317 0.27259 1.16487 0.590072
125 1 5.74127 5.95799 -1.61913 -0.136011 -2.75282 -0.154075 6.0523 -3.98102 0.200312 -0.211743 0.106901
127 1 8.57446 5.88387 -1.77198 -1.51658 -3.67076 0.00771245 0.438578 -3.83977 0.340832 -0.0516193 0.178594
18 1 10.0587 4.47472 -3.33925 2.01504 1.15568 0.108705 0.228504 -3.90941 -0.326268 0.333507 0.341579
20 1 12.7939 4.54238 -3.37722 -0.022531 3.00342 -1.17168 0.0691702 -3.95796 0.311625 -0.126105 -0.142603
28 1 10.1169 7.35391 -3.23855 1.08986 -1.21663 1.80841 5.80114 -3.8802 -0.568127 -0.162071 -0.177522
29 1 11.4127 5.98723 -5.00811 1.3822 1.47477 -0.555896 0.0552546 -3.91106 -0.315269 -0.0103359 0.0440556
30 1 12.8531 7.28188 -3.27062 0.362699 -0.519128 0.486825 0.142189 -3.91656 0.071214 0.423511 0.189169
129 1 11.3642 5.90889 -1.61107 -0.995542 1.01394 2.2528 0.118219 -3.97326 0.124242 -0.0644011 -0.325438
32 1 1.48279 10.1923 -3.41729 2.66336 -1.18469 0.933482 0.266407 -3.96645 0.398425 -0.521764 0.222143
34 1 4.32744 10.195 -3.41626 -3.42019 -1.92301 1.41173 0.215874 -3.87376 -0.123631 -0.561584 0.289604
43 1 2.92107 11.628 -5.0029 2.17426 0.782241 3.50485 0.131386 -3.99134 -0.198805 -0.419953 -0.39894
133 1 2.87707 8.77788 -1.6303 -1.44944 0.975575 0.710255 0.096037 -3.79136 0.612196 -0.145263 -0.137039
141 1 0.146359 11.6297 -1.75963 -2.20193 -7.04944 -1.51669 0.370224 -3.92405 0.247247 -0.0514429 0.196616
143 1 2.92416 11.521 -1.65699 -0.572232 1.1909 1.77002 0.174859 -3.95712 0.00737128 0.223737 -0.618016
36 1 7.17897 10.1662 -3.28744 0.10168 3.47717 0.174941 5.82621 -3.81588 -0.349514 0.0343299 0.142211
47 1 8.63625 11.4798 -4.91144 -1.46078 2.66256 0.234251 0.316291 -3.88703 -0.427132 0.226188 -0.387373
135 1 5.71447 8.72482 -1.54401 -0.880733 0.590278 -0.109653 6.02728 -3.81509 0.331355 0.123333 0.0827301
137 1 8.61908 8.74613 -1.7303 -4.19951 1.4167 -2.48788 0.405418 -3.89745 -0.0863185 0.0415714 0.0537519
145 1 5.78797 11.4174 -1.65406 0.913579 -3.10787 0.676852 6.05861 -3.84982 0.0668801 0.543486 0.379446
147 1 8.63173 11.5707 -1.53772 -2.52053 -2.66134 -2.016 0.21462 -3.90349 -0.196805 0.593731 -0.86235
37 1 8.64539 8.6808 -4.87765 -0.410704 1.96136 0.795798 5.72643 -3.93262 -0.374922 0.149203 0.0373571
41 1 14.1834 11.5242 -4.91589 -1.35835 -5.95404 3.83557 0.277329 -3.93045 -0.156035 0.27719 -0.0473414
131 1 14.189 8.78043 -1.52034 -1.59748 2.05417 3.03081 6.13227 -3.81263 0.203685 -0.149804 -0.504471
38 1 10.1092 10.2499 -3.20989 0.647054 3.02786 -2.05404 0.508831 -3.91938 -0.814194 -0.491085 0.397518
39 1 11.3428 8.78317 -4.96887 2.80774 -0.622395 -1.00191 5.52507 -3.8973 0.505746 0.0308467 0.0694468
40 1 12.8549 10.1114 -3.19006 -1.75728 -0.634733 -0.267602 6.36529 -3.89355 -0.136844 -0.0973559 -0.54799
139 1 11.4119 8.69776 -1.55851 -0.425376 2.4171 -0.0430739 0.118783 -3.97369 0.0253999 0.41577 -0.0065556
149 1 11.4267 11.5446 -1.55751 -0.904464 -0.906018 0.248794 0.190989 -3.93165 0.192249 0.374332 -0.0332602
49 1 11.351 11.4979 -4.93641 -3.94296 -1.72452 -3.57845 0.150987 -3.86892 0.2689 0.393777 -0.44458
42 1 1.60077 12.9976 -3.43605 -0.841826 -0.173751 0.753914 5.65163 -3.887 -0.631372 0.312777 0.653261
44 1 4.30049 12.9516 -3.45332 -1.17519 0.372824 -0.13007 6.4333 -3.94614 0.563268 0.292197 0.38052
52 1 1.58776 15.7356 -3.17506 -0.585983 1.26946 1.71295 5.41642 -3.74146 -0.647046 -0.0609987 -0.675983
54 1 4.38463 15.6552 -3.34471 0.269637 0.959657 1.9614 6.0979 -3.94137 -0.4256 0.0711518 -0.0509417
153 1 2.9946 14.2978 -1.64207 -3.03426 -0.361765 3.65674 0.172075 -3.87008 -0.471152 0.0199967 0.259458
46 1 7.13899 12.8477 -3.37268 -0.042375 -0.703018 -2.37022 5.51959 -3.86556 -0.243776 0.408356 0.400963
56 1 7.08452 15.7726 -3.43464 0.19616 0.505449 -1.21975 0.290106 -3.95745 0.469042 -0.313815 0.179242
155 1 5.76502 14.3443 -1.70678 -0.699273 2.50818 -2.71856 0.10676 -3.88867 0.168053 -0.182476 0.210266
157 1 8.53251 14.4644 -1.61118 1.77519 1.9958 -4.01974 5.48516 -3.86426 0.106905 -0.152697 -0.0679293
57 1 8.49816 14.3386 -4.86839 5.27468 2.46447 0.151665 0.596995 -3.77403 -0.0550928 0.138166 -0.861825
51 1 14.0057 14.3518 -5.02779 5.08997 3.62125 -2.07853 10.0894 -3.80276 1.0794 -0.213646 -0.11298
151 1 14.2009 14.4155 -1.63253 -4.71089 2.01634 -0.85659 0.136169 -3.79965 0.0781221 -0.0947122 0.18015
48 1 9.93985 13.0563 -3.31505 2.86016 2.34417 0.701272 5.5451 -3.89095 0.0291586 -0.515609 0.12709
50 1 12.7181 12.9904 -3.31813 0.559624 -1.36974 -0.820506 0.196009 -3.89243 0.0666853 -0.0861689 0.0620913
58 1 9.99316 15.7186 -3.33556 -3.3381 -1.51398 5.38263 0.193171 -3.95491 -0.0680613 0.421803 -0.148155
60 1 12.7967 15.7437 -3.32916 1.53771 1.90327 -4.70531 0.118323 -3.96356 -0.00452651 0.307441 0.437845
159 1 11.3491 14.3264 -1.5756 -0.265735 -1.65506 -3.98071 0.159682 -3.90213 -0.0113991 0.570283 -0.116462
62 1 1.43944 18.5161 -3.28879 0.272627 0.831543 -0.200207 0.119751 -3.84872 0.52489 -0.0269889 -0.40053
64 1 4.38586 18.6552 -3.28405 1.24428 1.0664 2.86252 5.67997 -3.8671 -0.208717 -0.627305 0.0744604
163 1 2.94245 17.1558 -1.76115 0.341627 2.40032 0.506019 0.447952 -3.88529 0.236431 0.294946 0.787672
171 1 0.141802 19.9783 -1.53336 -0.0590841 -1.37942 4.27312 0.19072 -3.94497 -0.225767 -0.0873385 -0.169218
173 1 2.89555 19.9823 -1.66701 0.785649 -1.23368 2.3689 0.15701 -3.93918 -0.560334 -0.317291 0.0647203
66 1 7.24355 18.6165 -3.28494 2.75597 -4.35103 0.905848 5.12753 -3.92777 -0.503728 -0.194581 -0.0466122
67 1 8.57677 17.1461 -5.0009 -4.30079 -3.56988 1.31798 0.0496672 -3.98258 -0.330471 -0.360754 0.345172
165 1 5.78304 17.093 -1.71701 1.97311 1.99329 -0.167527 0.256168 -3.89686 -0.132609 0.317531 -0.0409648
167 1 8.56005 17.078 -1.77721 1.63712 1.01306 -0.622391 5.05106 -3.91277 -0.00779052 -0.0475136 0.563385
175 1 5.70632 20.007 -1.63773 -3.42076 -2.85137 2.01629 0.142607 -3.91423 0.343804 0.147436 -0.254195
177 1 8.58858 20.043 -1.40582 -1.05917 0.80188 -0.731301 5.54947 -3.84629 -0.107963 -0.291582 -0.662241
75 1 5.71713 19.9361 -5.01761 -4.53949 -0.9021 2.29786 6.65099 -3.87622 -0.172687 0.307874 -0.00359308
65 1 5.67248 17.193 -4.9746 -1.31158 -3.63153 -0.620776 0.355884 -3.91067 0.339456 -0.200236 -0.509927
161 1 14.1852 17.2046 -1.52746 -8.06951 -0.86164 0.0732044 0.240537 -3.96247 -0.180292 0.417015 -0.678047
68 1 9.83757 18.5862 -3.2552 1.01621 0.95189 3.77626 5.75165 -3.90645 0.553863 0.205799 -0.270217
70 1 12.7582 18.5098 -3.30085 -2.75978 -0.241021 0.901339 0.163743 -3.81425 0.0790823 0.621718 0.137715
169 1 11.4357 17.1907 -1.64963 -0.050047 0.778513 1.36961 0.117289 -3.88112 -0.712342 0.0943765 0.352988
179 1 11.4548 19.9395 -1.55327 0.478562 4.61523 -0.247094 6.35229 -3.91264 -0.259024 0.296336 -0.307032
69 1 11.3235 17.1806 -4.90896 2.51938 -0.439877 2.89062 5.88069 -3.87202 0.139721 -0.00731853 -0.506713
71 1 14.189 20.001 -4.90145 -3.02828 1.71166 0.793185 0.332208 -3.78267 -0.295683 -0.800858 -0.067767
61 1 14.2026 17.0274 -4.94692 -2.79754 0.110739 5.17862 5.43472 -3.82409 0.302334 0.126423 -0.155538
72 1 1.54936 21.3951 -3.3941 2.3338 -3.4761 -2.56089 6.14169 -3.9608 -0.0557463 -0.439162 0.0773619
74 1 4.24289 21.3195 -3.248 -0.775897 2.76848 -0.309503 5.39148 -4.03065 0.810754 -0.23628 -0.779941
82 1 1.5098 24.075 -3.47578 -0.197856 1.54937 -4.05427 5.85614 -3.93178 0.112877 0.697908 -0.29687
84 1 4.24694 24.1216 -3.31076 1.75243 2.83472 -4.12876 5.45948 -3.86419 0.666374 0.22126 -0.204077
181 1 0.128659 22.763 -1.70759 -3.03311 -1.67311 -0.629939 0.0503227 -3.94101 -0.0588412 -0.0364558 0.0207088
183 1 2.89382 22.7594 -1.75534 0.572942 -1.11899 -0.365379 0.188757 -4.01752 -0.0804301 0.328269 0.362813
76 1 7.14056 21.2635 -3.34025 -0.691281 0.193514 1.05787 5.76831 -3.75705 0.16095 0.504833 0.188941
86 1 7.25436 24.2668 -3.33729 -2.43118 3.29649 -1.15762 11.9535 -3.76565 -0.353316 -0.533563 -0.231807
185 1 5.72509 22.8979 -1.74964 3.67767 -2.14848 -3.35625 5.83797 -3.93158 0.312993 -0.781607 0.473285
187 1 8.47118 22.692 -1.55702 -0.732136 -0.532565 -1.73565 5.63447 -3.87941 0.225704 -0.192639 -0.375687
78 1 9.92402 21.3232 -3.40263 -2.14879 -1.2859 1.20999 5.94266 -3.8789 0.107586 0.264851 0.729628
80 1 12.7264 21.3466 -3.31838 -2.02506 0.894117 1.33119 0.0669508 -3.86245 0.0905361 0.247909 -0.178213
88 1 9.99398 24.1702 -3.29148 -1.34963 2.3224 -3.76156 6.24099 -3.83565 -0.377081 0.305002 -0.27662
90 1 12.8226 24.1983 -3.43981 -3.32555 -1.34099 0.789537 0.19513 -3.82165 -0.0848538 -0.212316 0.653184
189 1 11.404 22.6532 -1.72791 1.1462 2.87937 3.03823 5.48343 -3.81186 0.336958 0.729678 0.0632387
92 1 1.49183 27.0716 -3.35225 -1.55268 0.823337 -0.21304 0.0710733 -3.83426 0.0197692 -0.414319 0.0370099
93 1 2.95679 25.6072 -5.0062 -2.98218 -1.24306 2.03838 0.18949 -3.83238 0.216859 0.385616 -0.392294
94 1 4.31233 27.0701 -3.1748 -2.42482 -0.468398 -1.32983 0.774739 -3.8344 -0.40985 -0.189325 -0.664049
193 1 2.87926 25.4829 -1.73871 -1.0862 0.475835 1.41936 5.88254 -3.86804 0.251089 0.863693 0.214611
5 1 5.72241 28.2956 -4.93774 2.69086 -0.906142 0.0342517 5.37782 -3.88043 0.220818 0.058899 -0.629059
107 1 8.62684 28.3911 -1.61832 1.62718 -2.83475 -3.52836 11.8046 -3.95096 -0.230173 0.754507 -0.307219
96 1 7.19496 27.0059 -3.34976 3.8854 -2.09663 -3.2721 5.85132 -3.97159 -0.236607 -0.0528047 0.0488715
195 1 5.7699 25.6353 -1.72184 -1.7019 -1.17403 1.74296 6.21243 -3.79886 -0.0358206 -0.063127 0.383241
197 1 8.65402 25.6862 -1.66255 -0.592902 -0.620959 0.00800132 0.337452 -3.96076 -0.48137 -0.526744 -0.245172
7 1 8.51249 28.4072 -4.91406 0.305773 -1.36188 3.04787 0.3829 -3.90047 -0.0761726 0.285047 -0.702131
191 1 14.1954 25.5315 -1.71148 -0.0885336 -4.4938 -0.48509 0.211193 -3.82062 0.198439 0.341354 -0.232523
98 1 9.85719 27.0277 -3.39945 2.60699 4.64685 0.62246 5.84223 -3.98067 0.500544 0.162964 -0.0641786
100 1 12.8111 27.1397 -3.33782 0.688756 2.41483 -3.36628 0.113327 -3.86191 0.0130444 -0.573553 -0.410231
199 1 11.3947 25.7747 -1.66078 -1.77748 -0.753815 0.440887 10.7388 -3.81536 0.401861 -0.352956 -0.492165
99 1 11.3966 25.6653 -4.95827 -3.11862 -0.640777 0.494149 0.148247 -3.8993 0.0443571 -0.0245246 -0.13963
102 1 1.43258 1.58866 0.054934 7.38627 -3.29026 1.48818 0.304254 -3.95508 0.502036 0.0670303 0.0423139
104 1 4.40471 1.70471 -0.0458159 -2.62904 -0.431866 -2.50035 0.244691 -3.83963 -0.369526 0.0418499 -0.318389
202 1 1.64591 1.56967 3.26519 2.02744 3.5456 -1.59179 4.95543 -3.98862 -0.929944 0.344852 0.0548037
203 1 2.94499 0.259696 1.66173 -1.3304 -3.48688 0.0854903 0.133806 -3.99587 -0.056715 -0.116395 -0.791762
204 1 4.18458 1.68524 3.35584 -0.935437 1.48785 2.63114 10.3628 -3.92842 1.1299 -0.610507 0.0440623
213 1 2.88677 3.08084 1.62349 -2.28947 -0.845795 -1.07431 0.382754 -3.92521 0.446689 0.0127062 0.0617519
106 1 7.15632 1.63052 -0.0626362 0.736671 -1.16949 0.0239501 0.268332 -3.97684 0.274207 0.163054 0.847724
205 1 5.64874 0.299036 1.51164 2.33469 0.995414 0.291621 9.69492 -3.8174 0.757197 -0.283079 0.833672
206 1 7.2548 1.68985 3.31284 -1.46106 -1.55409 1.7364 10.8343 -3.86547 -0.447203 -0.523094 0.222598
207 1 8.58474 0.236208 1.74637 1.31666 3.04051 1.49325 0.168645 -3.89438 0.543141 0.235762 -0.351472
215 1 5.78167 2.95842 1.80483 -1.49422 -2.50707 3.51511 0.564155 -3.86767 -0.201497 0.486404 -0.846532
217 1 8.60442 3.0921 1.68758 -1.80041 2.92479 -5.24384 0.125107 -3.96718 -0.17135 -0.0254936 -0.196214
201 1 14.2143 0.277593 1.75043 -0.76465 1.66164 -3.30675 0.3408 -3.91645 -0.593397 0.0481943 -0.380563
211 1 14.1953 3.09372 1.81053 0.131749 -3.47244 0.658656 0.308376 -3.82931 0.264902 -0.284754 0.0399316
108 1 9.98023 1.81548 0.0790114 1.78008 -0.0382443 0.481447 6.01016 -3.80695 0.0566637 -1.17347 -0.144096
110 1 12.7567 1.63776 -0.0213723 0.143622 0.261967 0.471904 0.170856 -3.79019 0.370188 0.167865 0.278011
219 1 11.4042 3.08595 1.71521 2.96876 -3.6 -0.306264 0.0674692 -3.86063 -0.0342874 0.108701 0.467972
112 1 1.47335 4.44722 0.148068 -2.08488 5.53109 1.88305 0.26865 -3.86816 0.149136 0.653138 -0.0132316
114 1 4.45714 4.53943 0.161884 0.408107 -1.46821 1.68028 5.53695 -3.92128 -0.0456994 -0.0959686 -0.379031
122 1 1.5387 7.19477 0.111524 -2.178 2.10286 -1.52883 0.272033 -3.78033 -0.22058 0.486033 0.223585
124 1 4.30599 7.3213 0.086302 -1.70609 -0.894295 0.386355 0.163864 -3.88691 -0.0229063 0.137186 0.278952
223 1 3.00176 5.86832 1.75911 -2.9209 -3.41332 -1.19244 0.121153 -3.91215 -0.419947 -0.13091 0.0362921
116 1 7.08446 4.43511 0.086774 -0.717838 -0.661302 1.69127 5.65819 -3.88394 0.452502 -0.0764538 -0.281883
126 1 7.33953 7.39572 0.0633894 1.37971 -3.46356 0.697126 5.89199 -3.79187 -0.373482 -0.556849 -0.2574
216 1 7.15048 4.45322 3.26676 0.663868 1.20315 1.59813 0.381793 -3.95796 0.310299 0.384282 -0.0564384
225 1 5.7941 6.05956 1.66453 0.299468 -1.75276 -1.18853 5.92941 -3.85491 -0.174347 -0.281174 0.239894
227 1 8.61587 5.8789 1.67184 -0.532809 -0.371899 0.126652 0.148134 -3.88965 -0.0617563 0.148924 0.169864
221 1 14.1524 5.86373 1.77474 0.796103 -1.93786 -0.0692733 0.139278 -3.91488 0.205019 0.0662523 0.0673586
118 1 10.0291 4.4796 0.0456556 -2.00022 0.251406 -1.34662 5.89928 -3.97219 -0.000520054 0.191475 -0.198459
120 1 12.7727 4.51546 -0.0252753 -2.93314 -0.0391201 0.674702 0.131307 -3.90641 0.195639 -0.341974 0.641334
128 1 10.0124 7.32217 -0.00839323 -2.7644 2.28321 3.1472 5.94838 -3.9608 -0.581062 0.137801 -0.0901211
130 1 12.7448 7.26336 -0.00183233 -1.8326 -3.86476 -3.53257 0.182372 -3.91705 0.643433 0.0478883 0.537637
218 1 9.92391 4.44006 3.39162 2.54663 2.02038 1.45237 0.0912535 -3.93255 0.414124 0.187715 -0.107418
220 1 12.7806 4.44772 3.38251 -0.879614 -1.25736 1.20844 0.0680637 -3.8128 0.105763 0.260619 0.540705
229 1 11.2652 5.91426 1.75231 0.58398 1.74186 -1.1864 5.55272 -3.93333 0.796878 0.0451154 0.0829927
230 1 12.8446 7.35538 3.29945 2.31232 0.678649 1.21522 0.288993 -3.89947 -0.20249 -0.490697 0.335624
132 1 1.49806 10.2454 -0.0459514 0.926583 1.77752 2.20689 0.215745 -3.90345 0.195801 -0.610272 0.247476
134 1 4.33421 10.2257 0.10622 -1.95039 -2.01599 -1.69927 5.78196 -3.85885 0.14443 -0.707901 -0.0920489
233 1 2.86938 8.7146 1.77761 -0.683116 0.194601 5.31636 0.152309 -3.77779 0.205476 -0.351482 -0.14358
234 1 4.30212 10.2221 3.38933 -0.621179 0.157015 -0.123602 5.81696 -3.85443 0.0357942 -0.420539 0.278908
241 1 0.149986 11.5192 1.66611 -2.41095 0.904273 -0.0212207 0.0991206 -3.9469 -0.296963 0.168588 0.33614
243 1 2.87755 11.525 1.60752 -0.234391 0.744033 0.670144 0.280945 -3.9257 -0.0184281 -0.157302 0.354637
136 1 7.34978 10.1327 0.0810908 0.629619 0.98562 1.20116 5.33481 -3.96473 -0.387882 0.209285 -0.0822016
235 1 5.87066 8.81598 1.63412 0.465343 -1.43871 1.4062 0.419891 -3.88219 -0.345096 -0.191006 0.391134
237 1 8.63235 8.75913 1.8819 2.56455 0.935182 0.542097 5.90566 -3.99219 -0.523302 -0.162748 -0.467571
245 1 5.87987 11.5851 1.70595 0.240801 -0.541356 -0.243051 0.428052 -3.88133 -0.37019 -0.00302595 -0.187708
247 1 8.6244 11.498 1.82736 0.432483 -3.51449 2.45946 6.24789 -3.97666 -0.0751089 0.575207 0.0827044
231 1 14.2058 8.74973 1.66497 -0.187028 1.52542 1.17023 0.0899308 -3.91786 0.35681 0.0522028 0.106688
138 1 9.92992 10.142 0.00657998 -1.64946 -2.47072 4.24093 5.60972 -3.97868 0.427648 -0.474061 0.352918
140 1 12.8378 10.2224 0.0156681 -3.06779 0.590986 0.953237 5.60743 -3.93916 -0.498108 -0.127757 0.263571
239 1 11.364 8.67474 1.67317 1.07823 -1.10089 5.00007 0.108076 -3.91617 0.439143 0.416 0.274794
240 1 12.788 10.0949 3.22155 0.473313 1.12475 -2.36237 10.7647 -3.84181 0.33905 0.407346 0.707168
249 1 11.3994 11.5636 1.81536 0.00818624 4.09037 -1.73351 0.288076 -3.92629 -0.21109 -0.378739 -0.107996
142 1 1.52181 13.0509 0.13013 -1.28477 -4.17543 2.9049 0.395905 -3.8935 -0.214256 -0.448926 -0.370971
144 1 4.29805 12.8216 -0.0574994 1.81958 -2.20134 0.0142737 5.21225 -3.87877 0.275842 0.700237 0.783631
152 1 1.51339 15.8576 0.103134 -0.669006 2.84052 -0.820189 5.75096 -3.99113 0.538981 -0.580537 -0.430338
154 1 4.25725 15.7179 0.00688459 2.46855 -1.35996 -1.82568 0.31594 -3.8686 0.769179 0.0222445 -0.125856
242 1 1.53992 12.9165 3.35483 0.280113 3.4737 -1.1283 0.136886 -3.93764 0.0659988 0.00858131 -0.0808941
244 1 4.24982 12.7782 3.38488 2.14938 -0.0921022 -0.749942 5.76659 -3.85856 0.544351 0.317475 -0.0694797
251 1 0.128475 14.4623 1.77736 2.68999 -0.1114 0.508103 5.79274 -3.89724 -0.0339164 -0.467647 -0.393998
252 1 1.63436 15.7834 3.25598 -3.12021 0.366244 0.726554 4.91817 -3.84094 -0.185512 -0.357655 0.632711
253 1 3.02926 14.3678 1.74889 0.643288 -2.70259 -2.00417 0.379414 -3.89675 -0.030543 -0.340282 -0.105628
146 1 7.13468 12.9886 0.0231011 1.04428 0.1527 -2.62964 0.135473 -3.78681 0.573911 -0.428418 0.162879
156 1 7.1141 15.8395 0.0534893 -5.45427 -4.00032 2.42238 0.312836 -3.9054 0.304599 0.170253 -0.0122499
255 1 5.79332 14.3612 1.65535 0.949383 2.2935 -3.25327 6.37579 -3.86575 -0.646803 -0.0353963 0.273494
256 1 7.19239 15.8423 3.2804 -0.861153 0.781607 -0.146585 0.42826 -3.96088 0.598756 -0.396903 0.374629
257 1 8.60857 14.4287 1.76746 -2.00567 3.54744 2.76289 5.91944 -3.86779 -0.0238814 -0.554245 -0.471409
148 1 10.0789 12.8625 0.132936 2.53119 -0.204599 1.59625 5.55067 -3.86476 -0.684924 0.395756 -0.311518
150 1 12.8144 12.9078 0.0947214 0.842405 -1.04171 -0.584461 5.77848 -3.95304 0.137726 0.376499 -0.156731
158 1 10.0599 15.8093 0.113719 1.95172 -4.28031 -2.67566 0.282756 -3.82484 -0.1374 -0.00847936 -0.175099
160 1 12.7974 15.8078 0.00151317 2.05154 2.79304 -0.0709358 0.224741 -3.88209 -0.100448 -0.501194 0.305864
250 1 12.9049 12.9601 3.33143 1.45982 -1.9964 -1.75047 0.303395 -3.91579 -0.384774 -0.361882 0.276652
259 1 11.5154 14.2983 1.7042 2.36546 0.76793 -0.871017 0.27374 -3.94768 -0.690317 0.656081 -0.0947591
162 1 1.61205 18.4318 0.0374859 0.103087 0.473685 0.329909 5.48905 -3.88639 -0.204759 0.784389 0.304961
164 1 4.41893 18.6151 -0.090454 -0.211573 3.22505 -5.20284 5.50929 -3.88992 -0.369658 -0.622925 -0.0578673
262 1 1.64124 18.6991 3.37216 -1.57751 0.894061 -4.43727 5.48373 -3.91735 -0.288893 -0.705165 0.132454
263 1 3.02324 17.1738 1.68924 -2.37006 -0.133771 0.32695 0.289263 -3.95237 -0.20652 0.291131 0.476112
271 1 0.239882 19.931 1.58642 -2.9132 -1.24747 -1.34561 0.652449 -3.91538 -0.0480764 0.184489 0.210916
273 1 3.06119 20.0027 1.70727 0.40391 -0.0741893 3.19324 5.86083 -3.88174 -0.334238 0.438638 0.0108073
166 1 7.16241 18.5363 0.0169735 0.698547 0.150344 -2.49931 5.27223 -3.89949 -0.124076 -0.348687 0.381119
265 1 5.71847 17.1429 1.84095 -1.6126 -0.82668 -3.54668 4.97676 -3.88775 -0.188282 0.241259 -0.53393
266 1 7.25348 18.553 3.28179 1.95445 3.37989 -0.145865 10.0866 -3.81689 -0.33448 -0.165222 0.138373
267 1 8.63962 17.1234 1.62354 1.62128 1.24999 -1.44411 0.29408 -3.89412 -0.476331 0.18964 0.360192
275 1 5.66392 19.9514 1.7143 0.0670137 -1.38317 -3.87798 5.4614 -3.88679 0.460899 0.212425 0.16122
277 1 8.52362 20.0544 1.70232 0.898333 -0.0775842 -0.479706 5.07579 -3.9057 0.424386 0.0257936 0.0810286
261 1 14.1769 17.1487 1.79284 3.22524 -0.724689 1.23685 5.37372 -3.94268 0.110127 0.0313948 0.0932785
168 1 9.9888 18.5753 0.0648228 -3.61858 0.233632 -1.83299 5.66215 -3.8616 0.140438 -0.138665 0.364846
170 1 12.8038 18.6463 0.1832 0.900172 4.64776 -2.52583 0.376901 -3.94557 -0.120037 -0.598885 -0.286795
269 1 11.4148 17.1891 1.91112 1.22914 3.37173 -1.05524 0.463773 -3.90287 0.21406 0.456932 -0.712222
270 1 12.909 18.7314 3.37804 -1.75346 -1.91228 -0.862528 5.80515 -3.83655 -0.37149 -0.684152 0.415151
279 1 11.3598 20.0486 1.6779 2.0114 -4.45816 0.994583 6.22837 -3.82115 -0.191306 -0.329289 0.550579
172 1 1.47279 21.4257 0.0682841 2.33301 -0.225112 2.95214 0.298637 -3.91511 0.858124 0.137963 0.0874133
174 1 4.32705 21.4567 -0.102788 -1.27528 -0.710527 -1.51037 0.31028 -3.8984 -0.177617 -0.309462 0.224586
182 1 1.5749 24.1646 0.0151543 -0.784188 -3.79054 -2.16947 6.45937 -3.91097 -0.463491 0.421917 0.253193
184 1 4.3073 24.238 -0.0324795 -0.587332 0.565944 -1.32797 0.150467 -3.91565 -0.102404 -0.0416986 0.0463041
272 1 1.50093 21.4332 3.2883 -1.3891 0.701157 2.48604 0.420341 -3.97351 0.271427 -0.67098 0.714845
281 1 0.183488 22.7914 1.77397 -2.74019 0.616667 0.622568 0.182782 -3.89596 -0.526548 0.249171 -0.472917
283 1 2.92311 22.8102 1.79381 1.18139 2.06881 4.32688 0.208804 -3.83721 0.785196 0.277304 -0.179086
176 1 7.06694 21.3141 0.0913865 -3.95137 -1.5893 -1.01736 5.14137 -3.96454 0.326801 0.290511 -0.465277
186 1 7.17879 24.1447 -0.0878478 2.78581 2.06017 1.88695 0.210932 -3.84157 0.191777 0.786801 0.384177
285 1 5.85589 22.7635 1.56376 1.31531 1.02106 -0.50399 0.611246 -3.81898 -0.852489 0.182601 0.498803
287 1 8.6565 22.7436 1.61491 2.42 3.87829 -0.705154 11.4082 -3.96276 -0.367785 0.308404 0.400386
178 1 9.99102 21.4199 -0.0272156 -1.13098 -1.50552 3.15931 0.276706 -3.99527 0.631784 -0.394658 0.265321
180 1 12.8404 21.4228 0.120179 -0.471497 0.0061306 0.269058 0.337583 -4.00709 -0.0714127 0.431066 -0.269632
188 1 10.0407 24.0693 -0.145004 -1.30348 -2.27273 0.479064 5.12098 -3.81317 -0.0584403 1.08127 0.542271
190 1 12.925 24.1389 -0.0157932 -1.55903 -2.12372 1.13416 11.7811 -3.78861 -0.483574 0.163698 0.1119
280 1 12.8739 21.3633 3.30393 1.61778 1.13426 1.57654 5.92089 -3.89603 0.0508655 0.170693 -0.122885
289 1 11.3072 22.8471 1.70829 -3.96248 4.07387 -0.259648 5.41199 -3.92049 -0.00223223 -0.23267 0.251644
290 1 12.8777 24.1232 3.36618 1.06046 -1.98762 3.24564 0.245912 -3.92834 -0.494066 -0.0016377 0.0594444
192 1 1.54582 26.9795 0.0516232 0.832332 -0.820942 0.130328 5.56654 -3.89123 -0.000151539 0.0100762 0.123652
194 1 4.33343 27.1078 -0.0120394 -1.61671 -3.20912 1.28134 0.259845 -3.88522 -0.125794 -0.721865 -0.563146
291 1 0.123486 25.6243 1.83876 -1.91934 -0.395923 -0.219087 0.447277 -3.85497 -0.18996 -0.251004 -0.700849
292 1 1.58125 27.1181 3.27225 0.521729 -0.104332 -0.21211 5.6325 -3.95038 -0.20493 -0.458292 0.455515
293 1 3.0799 25.6086 1.67724 2.80973 1.17343 -0.298043 6.04583 -3.84638 -0.37164 -0.260066 0.480867
294 1 4.2495 27.1204 3.3579 -1.17778 2.9951 1.58236 5.25489 -3.8962 0.384216 -0.232817 -0.161842
196 1 7.3038 27.0489 0.145266 3.37805 -2.98627 4.17109 5.10482 -3.84814 -0.687405 -0.178095 -0.572441
295 1 5.73558 25.636 1.65408 2.43808 0.681994 -1.51506 5.48259 -3.88579 0.209509 -0.239105 0.280293
296 1 7.17419 27.0665 3.26096 0.309675 6.50899 -1.89168 5.7799 -3.8453 0.10652 0.433058 0.108686
297 1 8.56397 25.5256 1.70567 -0.134748 1.31643 -3.31811 0.375167 -3.84734 0.863692 0.00721491 -0.208441
209 1 11.3537 28.3011 1.78007 -0.393176 -1.47754 0.78913 6.26186 -3.74892 0.304814 0.325045 -0.421919
198 1 9.95313 27.0869 -0.0808587 0.689763 -0.698924 -1.31982 5.42185 -3.78665 0.443718 -0.0908242 0.981122
200 1 13.0099 27.0067 -0.0210204 5.30296 -0.270392 0.651806 5.84221 -3.79889 -0.62384 -0.114128 0.460893
299 1 11.357 25.6421 1.75293 0.613569 6.18239 1.53807 6.60529 -3.7345 0.0360047 -0.192101 -0.186418
301 1 0.190771 0.330155 4.92637 0.5675 -0.168496 -2.46061 9.35504 -3.94334 0.0241434 -0.228564 0.467001
302 1 1.52998 1.64637 6.89707 -1.42736 -3.15682 0.972455 0.350318 -3.89393 -0.205931 -0.042982 -0.453273
303 1 2.87995 0.257353 5.09733 0.341516 -0.0404191 -2.60214 5.57787 -3.97385 0.404424 -0.331265 0.194636
304 1 4.29008 1.6221 6.72076 -4.04083 -0.468429 4.02966 0.167404 -3.83202 -0.047549 0.400155 0.315948
311 1 0.149724 2.85167 5.08811 -1.74976 0.28104 0.763369 10.2046 -3.81265 0.103984 1.18384 -0.400487
313 1 2.89377 2.99568 4.96218 0.148637 -0.416692 -0.495992 5.61246 -3.82461 0.0657811 0.0576316 0.607738
305 1 5.63949 0.272746 5.09254 -2.6762 0.601797 -1.53878 5.54788 -3.77628 0.750846 -0.0831886 -0.15573
306 1 7.16827 1.7968 6.75338 -0.497955 1.38302 -0.554626 6.17394 -3.8534 -0.784467 -0.653659 0.0339114
307 1 8.54451 0.339894 5.14184 2.06573 -1.47317 -0.377265 6.08109 -3.90778 -0.237349 -0.554161 -0.524967
315 1 5.88369 2.98404 4.99963 0.746495 3.22544 0.384377 5.63429 -3.92096 -0.867425 0.62508 0.0190303
317 1 8.5575 3.091 5.00104 0.877774 1.33708 0.284955 5.90274 -4.04456 -0.182647 -0.19932 0.325842
208 1 9.93587 1.5992 3.41199 -2.11946 3.54369 -4.60115 5.92997 -4.00821 0.0410335 0.220904 -0.00890045
210 1 12.7168 1.62492 3.44353 1.93469 -2.84729 3.21644 0.367365 -3.8767 0.110249 -0.0329568 -0.18031
308 1 9.85407 1.73124 6.7053 -3.32365 0.641461 0.348771 0.212092 -3.91612 0.732952 -0.228079 0.27961
309 1 11.427 0.271834 5.13951 2.261 -0.338001 1.59023 0.170512 -3.88916 0.0414703 0.154073 0.00681849
310 1 12.8338 1.67333 6.72892 -2.12593 2.9352 -1.91821 0.183082 -3.88745 -0.073377 -0.109572 0.194792
319 1 11.2832 3.0542 5.0966 1.40137 -1.12676 -0.599603 0.113175 -3.94738 0.47718 -0.27604 -0.35416
212 1 1.5107 4.56417 3.41885 1.71349 1.1107 -0.37813 5.74727 -3.90293 -0.020241 -0.502484 -0.157185
214 1 4.35594 4.34938 3.43901 -3.60792 0.888428 1.10906 5.23644 -3.87238 0.114823 0.316723 -0.582262
222 1 1.54559 7.23945 3.395 2.60978 -1.28947 -2.65909 5.75474 -3.92513 -0.491193 -0.0123382 0.115302
224 1 4.45542 7.31972 3.43491 2.28078 -2.16034 3.83898 0.317067 -3.86726 -0.821052 0.00665886 -0.791732
312 1 1.51633 4.46751 6.67973 6.58074 -1.87872 -2.48992 0.261852 -3.88928 -0.0858122 0.144357 -0.0238329
314 1 4.38482 4.47065 6.80735 1.38421 -0.500902 1.94911 6.14514 -3.79014 0.0707816 -0.411316 -0.536703
322 1 1.50912 7.24612 6.66441 2.77664 -2.04083 2.3912 0.116832 -3.86817 0.0998395 -0.15993 -0.232071
323 1 3.05231 5.91185 5.01522 -1.31866 2.39502 -0.268551 0.271755 -3.89297 -0.48823 -0.289017 0.069579
324 1 4.3708 7.29584 6.69511 1.4459 0.563605 -1.51929 0.138011 -3.90875 0.173473 -0.401702 -0.386984
226 1 7.22143 7.27669 3.39808 -1.92098 2.73055 -2.00716 5.93567 -3.93052 0.0483972 0.22654 -0.0491219
316 1 7.10763 4.57462 6.73739 2.31643 -3.52172 -0.258836 6.0533 -3.94827 -0.113342 -1.14064 0.203105
325 1 5.76431 5.8264 4.95124 -2.43851 2.57701 -2.10025 0.2873 -3.91767 -0.0915033 0.0797498 0.528359
326 1 7.19795 7.24786 6.64142 -1.71798 -0.00966545 0.572563 0.286984 -3.972 -0.256043 0.567491 -0.147045
327 1 8.55272 5.78657 5.17459 -1.12912 -0.410511 1.0442 5.32095 -3.89614 0.0424217 0.318468 -1.12311
228 1 9.92162 7.27115 3.48577 0.0778168 -0.255412 1.79302 5.52418 -3.90396 0.474557 0.201977 0.177113
321 1 14.1448 5.82456 5.05843 4.06995 0.134137 -0.309495 0.203614 -3.89415 0.0974182 0.568127 -0.452687
318 1 9.98504 4.43593 6.69939 1.75132 -4.65897 3.2673 0.0923929 -3.9546 0.0939874 0.447158 0.334418
320 1 12.7757 4.48205 6.70686 1.89733 -3.11783 2.82706 0.190923 -3.87629 -0.0371522 -0.649758 0.0831606
328 1 10.0129 7.28399 6.56929 2.65819 -0.927283 -2.4793 4.87545 -3.8849 -0.0303669 -0.115801 0.705319
329 1 11.4291 5.87426 5.03944 1.9858 -1.38951 -0.786356 0.0792169 -3.91938 0.0911845 -0.178006 -0.145425
330 1 12.8425 7.28945 6.7304 -1.97867 0.420953 -1.07444 0.0997226 -3.97139 0.0285891 -0.244303 0.195511
232 1 1.56015 10.1641 3.41327 2.12226 0.0705619 -0.681687 0.230806 -3.95656 -0.554312 0.208731 -0.326186