ITEM: TIMESTEP
114000
ITEM: NUMBER OF ATOMS
2000
ITEM: BOX BOUNDS pp pp pp
1.0838953229856951e-01 1.4221610467701321e+01
2.1677906459713903e-01 2.8443220935402643e+01
-2.7842562440775493e+00 6.0104256244077114e+01
ITEM: ATOMS id type x y z vx vy vz c_csym c_peratom fx fy fz
2 1 1.62332 1.66863 -1.20401 -0.282889 -3.25185 -0.636516 0.278924 -4.0025 -0.665673 0.231757 -0.16889
4 1 4.35789 1.61575 -1.28035 0.990702 -5.33602 3.45801 0.242695 -4.00903 -0.0409689 0.391991 0.508779
11 1 0.115605 3.14255 -2.73346 0.617832 -0.194419 3.50607 0.233941 -3.93583 -0.317598 -0.0504754 -0.480335
101 1 0.126621 0.284403 0.331486 -1.57173 1.46596 2.1275 0.152877 -4.03008 0.00502448 -0.304544 -0.105103
103 1 2.85007 0.270771 0.394541 0.287695 0.367304 -1.8153 0.245444 -3.898 0.45599 -0.0272721 0.484196
111 1 0.168447 3.08626 0.359476 -2.2925 0.592843 0.179022 0.133808 -4.00591 0.1509 0.0448599 -0.386847
113 1 2.87763 3.13123 0.418183 -1.71434 2.42111 -1.1208 5.78149 -3.96613 -0.367772 0.0750787 0.038423
13 1 2.94284 3.10367 -2.76413 -0.0706192 -1.95523 0.774801 0.0747951 -3.92 -0.0589534 0.324735 0.322955
6 1 7.17995 1.58532 -1.21116 -1.53139 -1.81767 -2.43971 0.231749 -3.98244 0.223806 0.586145 0.0801448
17 1 8.63608 3.25517 -2.71104 -1.24355 -0.0988133 -0.860341 5.18806 -3.97595 -0.164895 -0.348385 -0.0355488
105 1 5.90739 0.22905 0.361012 0.812795 -1.48127 -4.16198 0.295685 -3.98282 -0.582813 -0.0542343 0.119353
115 1 5.79048 3.13764 0.345418 -0.932742 0.818202 0.0439582 0.184027 -3.9587 -0.0578021 -0.254113 -0.143532
117 1 8.60233 3.08029 0.430426 0.475293 0.415756 -1.302 0.172846 -3.95196 -0.0311465 0.312156 -0.464975
15 1 5.86915 3.09703 -2.72384 -1.1078 -3.23994 -0.243916 0.299902 -3.89954 -0.172571 0.355094 -0.487682
8 1 9.98472 1.71462 -1.33312 1.02028 2.64764 -1.65962 0.425517 -3.96274 -0.544426 -0.213596 0.882354
9 1 11.3244 0.287262 -2.6781 -0.628437 1.37052 0.162777 0.419047 -3.95812 0.647096 0.0553079 -0.166436
10 1 12.8557 1.68831 -1.27979 -0.261261 2.58464 0.684826 0.142655 -3.93885 -0.49791 0.00840251 -0.0178916
109 1 11.3921 0.306018 0.329378 4.17545 -4.26001 3.01885 0.171695 -3.9629 -0.422189 -0.451664 -0.0820775
119 1 11.4562 3.11085 0.272181 -0.877516 0.612354 1.13148 0.15994 -4.00744 -0.233166 -0.546886 0.0262488
12 1 1.52356 4.6359 -1.3121 1.18436 1.40208 1.05812 0.594487 -3.95236 0.119584 -0.198309 0.220181
14 1 4.34915 4.42365 -1.1057 -0.761965 1.11821 -1.53086 0.278733 -4.01373 -0.115067 0.52839 -0.44064
22 1 1.54026 7.32431 -1.28326 0.529166 1.27637 -0.648244 5.7932 -3.93184 -0.240345 -0.186366 0.483418
23 1 3.01689 5.92797 -2.75515 4.21453 0.286138 -0.65637 0.226161 -3.93324 -0.206123 0.102295 -0.279207
24 1 4.35552 7.36387 -1.20931 0.718611 1.41969 0.425215 0.111343 -3.95252 -0.00121499 0.0600287 -0.200891
121 1 0.132435 5.82793 0.352142 -2.35864 3.10392 -0.471262 0.192412 -3.94433 0.21105 0.199899 -0.107155
123 1 3.01618 5.86763 0.452484 1.00139 1.8653 -1.24788 0.262428 -3.99369 -0.193192 -0.176833 -0.28387
16 1 7.14135 4.5226 -1.12803 0.603539 0.154603 0.133915 0.162715 -3.97802 0.0555125 -0.228179 -0.309467
25 1 5.70759 5.92495 -2.66001 -0.827089 1.1553 2.35682 5.04031 -4.02583 0.337363 -0.711033 -0.68894
26 1 7.1412 7.16975 -1.26151 -0.0337704 2.62343 0.778117 5.19492 -3.88393 -0.143931 0.767953 0.0789957
125 1 5.74127 5.95799 0.397784 -0.136011 -2.75282 -0.154075 0.139006 -4.08568 -0.185112 0.154478 0.368352
127 1 8.57446 5.88387 0.255115 -1.51658 -3.67076 0.00771245 0.394504 -3.96916 0.246901 0.135516 0.171382
18 1 10.0587 4.47472 -1.20775 2.01504 1.15568 0.108705 0.218477 -3.97704 0.0452441 0.598581 0.00802667
20 1 12.7939 4.54238 -1.2432 -0.022531 3.00342 -1.17168 0.0637481 -4.03017 0.15795 -0.114147 0.263044
28 1 10.1169 7.35391 -1.11376 1.08986 -1.21663 1.80841 0.416845 -3.95302 -0.444591 -0.386215 0.200593
29 1 11.4127 5.98723 -2.76545 1.3822 1.47477 -0.555896 0.0543196 -4.00973 -0.391258 -0.634483 -0.278345
30 1 12.8531 7.28188 -1.14369 0.362699 -0.519128 0.486825 0.1382 -4.01856 -0.0671659 0.120548 0.44713
129 1 11.3642 5.90889 0.405314 -0.995542 1.01394 2.2528 0.112729 -4.02782 0.466326 -0.327618 -0.0420836
32 1 1.48279 10.1923 -1.2806 2.66336 -1.18469 0.933482 0.240863 -4.06377 0.213641 -0.235999 0.0190197
34 1 4.32744 10.195 -1.27963 -3.42019 -1.92301 1.41173 0.199527 -3.97778 -0.0121017 -0.227091 0.464171
43 1 2.92107 11.628 -2.76059 2.17426 0.782241 3.50485 0.121867 -4.03827 0.130752 -0.298645 -0.354022
133 1 2.87707 8.77788 0.387362 -1.44944 0.975575 0.710255 0.0927286 -3.92359 0.489825 -0.0754553 0.290266
141 1 0.146359 11.6297 0.266649 -2.20193 -7.04944 -1.51669 0.333707 -4.03259 0.134614 0.392823 0.112768
143 1 2.92416 11.521 0.362445 -0.572232 1.1909 1.77002 0.166975 -4.04346 -0.145068 0.143504 -0.504496
36 1 7.17897 10.1662 -1.15939 0.10168 3.47717 0.174941 0.171684 -3.8999 0.241975 -0.308041 -0.0405133
47 1 8.63625 11.4798 -2.67522 -1.46078 2.66256 0.234251 0.295294 -3.98284 -0.50251 -0.175215 -0.346958
135 1 5.71447 8.72482 0.467902 -0.880733 0.590278 -0.109653 5.71515 -3.94857 0.163532 -0.278923 -0.317991
137 1 8.61908 8.74613 0.294026 -4.19951 1.4167 -2.48788 0.376745 -4.00174 -0.0893599 0.0741141 -0.0567982
145 1 5.78797 11.4174 0.365186 0.913579 -3.10787 0.676852 5.72405 -3.95434 -0.162891 0.213223 0.407836
147 1 8.63173 11.5707 0.473773 -2.52053 -2.66134 -2.016 0.198102 -3.98809 -0.177448 0.705723 -0.590678
37 1 8.64539 8.6808 -2.64368 -0.410704 1.96136 0.795798 0.381452 -4.03962 -0.16558 0.15027 0.232357
41 1 14.1834 11.5242 -2.67937 -1.35835 -5.95404 3.83557 0.255704 -3.99541 -0.0427699 0.082225 0.163706
131 1 14.189 8.78043 0.489993 -1.59748 2.05417 3.03081 0.423072 -3.91208 0.342011 -0.352551 -0.403044
38 1 10.1092 10.2499 -1.08701 0.647054 3.02786 -2.05404 0.499652 -3.99678 -0.586449 -0.732667 0.279864
39 1 11.3428 8.78317 -2.72882 2.80774 -0.622395 -1.00191 0.224246 -3.99402 0.530183 -0.37066 0.403351
40 1 12.8549 10.1114 -1.0685 -1.75728 -0.634733 -0.267602 0.255929 -3.99609 -0.100817 -0.34636 -0.248341
139 1 11.4119 8.69776 0.454368 -0.425376 2.4171 -0.0430739 0.112547 -4.03135 -0.180736 0.478794 -0.353707
149 1 11.4267 11.5446 0.455302 -0.904464 -0.906018 0.248794 0.181206 -3.99965 0.264748 0.472381 -0.0846953
49 1 11.351 11.4979 -2.69852 -3.94296 -1.72452 -3.57845 0.146481 -3.95094 0.578539 0.185938 -0.0479971
42 1 1.60077 12.9976 -1.29811 -0.841826 -0.173751 0.753914 0.439024 -3.98372 -0.567796 0.055739 0.0977261
44 1 4.30049 12.9516 -1.31422 -1.17519 0.372824 -0.13007 6.08218 -4.05255 0.383494 -0.148515 0.0591918
52 1 1.58776 15.7356 -1.0545 -0.585983 1.26946 1.71295 5.19863 -3.86847 -0.447651 0.211396 -0.412979
54 1 4.38463 15.6552 -1.21285 0.269637 0.959657 1.9614 0.280465 -4.01643 -0.665409 0.100219 -0.108525
153 1 2.9946 14.2978 0.376374 -3.03426 -0.361765 3.65674 0.167839 -3.93982 -0.162298 0.0464132 0.289429
46 1 7.13899 12.8477 -1.23896 -0.042375 -0.703018 -2.37022 5.25479 -3.95217 -0.341756 0.416278 0.0376724
56 1 7.08452 15.7726 -1.29679 0.19616 0.505449 -1.21975 0.265049 -4.02229 0.193065 -0.456409 -0.316785
155 1 5.76502 14.3443 0.31598 -0.699273 2.50818 -2.71856 0.104557 -3.98527 -0.00546863 -0.282577 -0.0881348
157 1 8.53251 14.4644 0.405205 1.77519 1.9958 -4.01974 5.20612 -3.99094 -0.156753 -0.59967 0.0111947
57 1 8.49816 14.3386 -2.63504 5.27468 2.46447 0.151665 0.532916 -3.884 0.162286 -0.0391629 -1.01701
51 1 14.0057 14.3518 -2.78381 5.08997 3.62125 -2.07853 4.92345 -3.89881 1.04443 -0.415178 0.0989937
151 1 14.2009 14.4155 0.385284 -4.71089 2.01634 -0.85659 0.127191 -3.90316 0.184009 -0.549642 0.366358
48 1 9.93985 13.0563 -1.18517 2.86016 2.34417 0.701272 5.20473 -3.97412 0.462331 -0.339196 0.0802078
50 1 12.7181 12.9904 -1.18804 0.559624 -1.36974 -0.820506 0.184258 -3.98179 -5.29407e-05 -0.484728 0.12947
58 1 9.99316 15.7186 -1.20431 -3.3381 -1.51398 5.38263 0.179009 -4.01662 0.324524 0.551106 0.0165948
60 1 12.7967 15.7437 -1.19833 1.53771 1.90327 -4.70531 0.114142 -4.01499 -0.503976 0.0580116 0.506995
159 1 11.3491 14.3264 0.438413 -0.265735 -1.65506 -3.98071 0.154629 -3.9879 0.221325 0.0488889 0.116095
62 1 1.43944 18.5161 -1.16065 0.272627 0.831543 -0.200207 0.117347 -3.9446 0.471108 0.117522 -0.577153
64 1 4.38586 18.6552 -1.15623 1.24428 1.0664 2.86252 5.33842 -3.94522 -0.298234 -0.573766 0.217214
163 1 2.94245 17.1558 0.265227 0.341627 2.40032 0.506019 0.411052 -3.96644 0.608258 0.00341944 0.077546
171 1 0.141802 19.9783 0.477844 -0.0590841 -1.37942 4.27312 0.177258 -4.05092 -0.243999 0.176091 -0.18431
173 1 2.89555 19.9823 0.353097 0.785649 -1.23368 2.3689 0.1499 -4.0236 -0.886507 -0.361645 0.434346
66 1 7.24355 18.6165 -1.15706 2.75597 -4.35103 0.905848 5.62709 -4.05008 -0.468126 0.276375 0.265276
67 1 8.57677 17.1461 -2.75872 -4.30079 -3.56988 1.31798 0.0495932 -4.06612 -0.402743 -0.176321 0.402421
165 1 5.78304 17.093 0.30643 1.97311 1.99329 -0.167527 0.245181 -3.96803 -0.0401487 0.34901 -0.174011
167 1 8.56005 17.078 0.250233 1.63712 1.01306 -0.622391 4.7873 -4.0205 0.400083 -0.113551 0.740313
175 1 5.70632 20.007 0.380424 -3.42076 -2.85137 2.01629 0.136743 -3.97644 0.174715 0.14396 0.285161
177 1 8.58858 20.043 0.596887 -1.05917 0.80188 -0.731301 1.03837 -3.94952 -0.0833501 -0.400781 -0.532551
75 1 5.71713 19.9361 -2.77431 -4.53949 -0.9021 2.29786 0.133575 -3.9774 -0.433569 0.365662 -0.283845
65 1 5.67248 17.193 -2.73417 -1.31158 -3.63153 -0.620776 0.339969 -4.01844 0.23434 -0.247147 -0.0632006
161 1 14.1852 17.2046 0.483352 -8.06951 -0.86164 0.0732044 0.223229 -4.05081 -0.18179 0.259985 -0.661342
68 1 9.83757 18.5862 -1.1293 1.01621 0.95189 3.77626 5.40654 -4.02073 0.464413 0.489088 0.14893
70 1 12.7582 18.5098 -1.17191 -2.75978 -0.241021 0.901339 0.158735 -3.90281 -0.0379362 0.204529 -0.374661
169 1 11.4357 17.1907 0.369318 -0.050047 0.778513 1.36961 0.112466 -3.96717 -0.450884 -0.34573 0.0975285
179 1 11.4548 19.9395 0.459265 0.478562 4.61523 -0.247094 0.252941 -4.0063 -0.229966 0.390396 -0.0479363
69 1 11.3235 17.1806 -2.67291 2.51938 -0.439877 2.89062 0.225227 -3.97131 0.126135 -0.144367 -0.232238
71 1 14.189 20.001 -2.66589 -3.02828 1.71166 0.793185 0.311383 -3.86616 -0.00308106 -0.51028 0.196543
61 1 14.2026 17.0274 -2.70833 -2.79754 0.110739 5.17862 0.302738 -3.92984 0.321595 0.0741343 0.459005
72 1 1.54936 21.3951 -1.25895 2.3338 -3.4761 -2.56089 0.179344 -4.04949 -0.289784 -0.394558 -0.58601
74 1 4.24289 21.3195 -1.12259 -0.775897 2.76848 -0.309503 0.379449 -4.11239 0.170785 0.235652 -0.423091
82 1 1.5098 24.075 -1.33519 -0.197856 1.54937 -4.05427 0.299075 -4.02911 -0.423404 0.201147 0.152408
84 1 4.24694 24.1216 -1.18116 1.75243 2.83472 -4.12876 0.401554 -3.94323 0.714783 0.12085 0.119627
181 1 0.128659 22.763 0.315216 -3.03311 -1.67311 -0.629939 0.0480011 -4.02698 -0.279242 -0.417938 -0.249089
183 1 2.89382 22.7594 0.270651 0.572942 -1.11899 -0.365379 0.168048 -4.06248 -0.185687 0.509785 0.361063
76 1 7.14056 21.2635 -1.20869 -0.691281 0.193514 1.05787 5.40686 -3.87253 0.0502039 0.489642 0.17765
86 1 7.25436 24.2668 -1.20593 -2.43118 3.29649 -1.15762 5.73961 -3.87832 -0.118072 -0.474955 -0.298805
185 1 5.72509 22.8979 0.275971 3.67767 -2.14848 -3.35625 0.476488 -4.00715 0.340352 -0.935518 0.103036
187 1 8.47118 22.692 0.455758 -0.732136 -0.532565 -1.73565 5.24862 -3.98383 0.431039 0.386833 -0.26086
78 1 9.92402 21.3232 -1.26691 -2.14879 -1.2859 1.20999 0.22881 -3.99419 -0.286439 0.476924 0.720048
80 1 12.7264 21.3466 -1.18827 -2.02506 0.894117 1.33119 0.0649651 -3.94754 0.367085 -0.151137 0.0436661
88 1 9.99398 24.1702 -1.16317 -1.34963 2.3224 -3.76156 0.209638 -3.97846 -0.499198 -0.0861397 0.0845632
90 1 12.8226 24.1983 -1.30162 -3.32555 -1.34099 0.789537 0.18471 -3.93542 -0.906358 0.040273 0.400385
189 1 11.404 22.6532 0.296256 1.1462 2.87937 3.03823 0.29165 -3.90515 0.340883 0.251194 0.165662
92 1 1.49183 27.0716 -1.21989 -1.55268 0.823337 -0.21304 0.0695193 -3.94708 0.0258783 -0.379265 0.430923
93 1 2.95679 25.6072 -2.76367 -2.98218 -1.24306 2.03838 0.17484 -3.96405 0.283511 0.384837 0.0713235
94 1 4.31233 27.0701 -1.05426 -2.42482 -0.468398 -1.32983 0.701412 -3.93759 -0.40584 0.010792 -0.0779942
193 1 2.87926 25.4829 0.28617 -1.0862 0.475835 1.41936 0.419708 -3.94051 0.273207 0.43977 0.00313519
5 1 5.72241 28.2956 -2.69977 2.69086 -0.906142 0.0342517 5.12553 -3.98041 0.144865 0.574445 -0.451838
107 1 8.62684 28.3911 0.398539 1.62718 -2.83475 -3.52836 0.300554 -4.0447 0.0701242 0.999231 -0.613296
96 1 7.19496 27.0059 -1.21756 3.8854 -2.09663 -3.2721 0.0390979 -4.03765 -0.264295 -0.0636228 0.364213
195 1 5.7699 25.6353 0.301915 -1.7019 -1.17403 1.74296 0.137849 -3.91897 -0.261887 -0.136161 0.593394
197 1 8.65402 25.6862 0.357261 -0.592902 -0.620959 0.00800132 0.32512 -4.03512 -0.188382 -0.203536 0.318466
7 1 8.51249 28.4072 -2.67766 0.305773 -1.36188 3.04787 0.350292 -3.97181 0.222991 -0.0337547 -0.47508
191 1 14.1954 25.5315 0.311585 -0.0885336 -4.4938 -0.48509 0.208651 -3.90868 0.348351 0.207224 -0.583688
98 1 9.85719 27.0277 -1.26394 2.60699 4.64685 0.62246 5.52975 -4.0759 0.611732 0.0447239 -0.231724
100 1 12.8111 27.1397 -1.20642 0.688756 2.41483 -3.36628 0.111264 -3.96433 0.249841 -0.102896 -0.0222934
199 1 11.3947 25.7747 0.358912 -1.77748 -0.753815 0.440887 0.585962 -3.92015 0.709025 -0.489466 0.0290743
99 1 11.3966 25.6653 -2.71893 -3.11862 -0.640777 0.494149 0.141769 -3.99846 -0.193355 -0.46399 0.000986649
102 1 1.43258 1.58866 1.96034 7.38627 -3.29026 1.48818 0.297703 -4.03901 0.458308 0.474731 0.39334
104 1 4.40471 1.70471 1.8663 -2.62904 -0.431866 -2.50035 0.233829 -3.96038 -0.693676 0.058101 -0.516479
202 1 1.64591 1.56967 4.95676 2.02744 3.5456 -1.59179 4.67157 -4.03532 -0.883487 0.905506 -0.360682
203 1 2.94499 0.259696 3.46011 -1.3304 -3.48688 0.0854903 0.13002 -4.05205 0.207125 -0.107294 -0.174954
204 1 4.18458 1.68524 5.04137 -0.935437 1.48785 2.63114 4.60203 -3.99667 1.13757 -0.0996094 -0.227052
213 1 2.88677 3.08084 3.42441 -2.28947 -0.845795 -1.07431 0.360173 -4.02093 0.141008 -0.261884 -0.405125
106 1 7.15632 1.63052 1.8506 0.736671 -1.16949 0.0239501 0.247418 -4.06069 0.48199 0.0991176 0.767477
205 1 5.64874 0.299036 3.32002 2.33469 0.995414 0.291621 4.69815 -3.91296 0.578415 -0.376633 0.958218
206 1 7.2548 1.68985 5.00124 -1.46106 -1.55409 1.7364 4.8489 -3.95585 -0.46426 -0.584907 -0.456385
207 1 8.58474 0.236208 3.53911 1.31666 3.04051 1.49325 0.15476 -3.96499 0.276733 0.0800382 -0.722468
215 1 5.78167 2.95842 3.59368 -1.49422 -2.50707 3.51511 0.531747 -3.96792 -0.353282 0.465739 -0.49961
217 1 8.60442 3.0921 3.48423 -1.80041 2.92479 -5.24384 0.122717 -4.02358 -0.116856 -0.297445 0.321849
201 1 14.2143 0.277593 3.5429 -0.76465 1.66164 -3.30675 0.324251 -4.00988 -0.400936 -0.294404 0.123456
211 1 14.1953 3.09372 3.599 0.131749 -3.47244 0.658656 0.278777 -3.95084 0.414336 -0.545364 -0.0298195
108 1 9.98023 1.81548 1.98281 1.78008 -0.0382443 0.481447 5.65889 -3.90619 -0.142246 -0.953899 -0.139557
110 1 12.7567 1.63776 1.88912 0.143622 0.261967 0.471904 0.163323 -3.89074 0.0485127 0.359097 0.38953
219 1 11.4042 3.08595 3.51003 2.96876 -3.6 -0.306264 0.0661876 -3.94371 0.0264416 -0.00524058 0.212013
112 1 1.47335 4.44722 2.04727 -2.08488 5.53109 1.88305 0.246607 -3.95367 -0.136826 0.485578 0.00415996
114 1 4.45714 4.53943 2.06017 0.408107 -1.46821 1.68028 5.21721 -4.02654 -0.0155993 -0.64939 -0.300662
122 1 1.5387 7.19477 2.01316 -2.178 2.10286 -1.52883 0.267736 -3.88972 -0.444899 0.00621622 -0.256176
124 1 4.30599 7.3213 1.98962 -1.70609 -0.894295 0.386355 0.159878 -3.94692 0.0705876 0.0107858 0.160256
223 1 3.00176 5.86832 3.551 -2.9209 -3.41332 -1.19244 0.120264 -4.01385 0.0997181 -0.362512 0.147955
116 1 7.08446 4.43511 1.99006 -0.717838 -0.661302 1.69127 5.32364 -4.00147 0.607962 0.54336 0.189095
126 1 7.33953 7.39572 1.96823 1.37971 -3.46356 0.697126 0.49908 -3.89369 -0.659751 -0.210365 0.0317298
216 1 7.15048 4.45322 4.95823 0.663868 1.20315 1.59813 0.350064 -4.05092 -0.0881641 0.65192 0.0114363
225 1 5.7941 6.05956 3.46272 0.299468 -1.75276 -1.18853 5.61501 -3.96012 0.0187528 -0.244929 0.237276
227 1 8.61587 5.8789 3.46954 -0.532809 -0.371899 0.126652 0.137565 -3.97267 0.186669 0.145297 -0.00872352
221 1 14.1524 5.86373 3.56559 0.796103 -1.93786 -0.0692733 0.131125 -4.00445 0.067306 0.515423 -0.276498
118 1 10.0291 4.4796 1.95168 -2.00022 0.251406 -1.34662 0.10547 -4.05083 -0.172233 0.107229 -0.552675
120 1 12.7727 4.51546 1.88547 -2.93314 -0.0391201 0.674702 0.118744 -4.00923 -0.193361 -0.127266 0.626414
128 1 10.0124 7.32217 1.90123 -2.7644 2.28321 3.1472 0.134781 -4.0355 -0.741851 -0.230438 0.324351
130 1 12.7448 7.26336 1.90736 -1.8326 -3.86476 -3.53257 0.168559 -4.02422 0.393105 0.246066 0.219217
218 1 9.92391 4.44006 5.07477 2.54663 2.02038 1.45237 0.0892409 -4.03058 0.195938 0.193241 -0.0530716
220 1 12.7806 4.44772 5.06627 -0.879614 -1.25736 1.20844 0.0649372 -3.90155 -0.343539 0.183071 0.463377
229 1 11.2652 5.91426 3.54465 0.58398 1.74186 -1.1864 0.303905 -4.02185 0.796885 -0.16523 -0.114117
230 1 12.8446 7.35538 4.98874 2.31232 0.678649 1.21522 0.279709 -3.98002 -0.376306 -0.82504 0.123258
132 1 1.49806 10.2454 1.86618 0.926583 1.77752 2.20689 0.206674 -3.9746 -0.245897 -0.527802 0.267549
134 1 4.33421 10.2257 2.00821 -1.95039 -2.01599 -1.69927 5.45426 -3.94553 0.294715 -0.431468 0.0428543
233 1 2.86938 8.7146 3.56827 -0.683116 0.194601 5.31636 0.147594 -3.90697 0.263626 0.212972 -0.438247
234 1 4.30212 10.2221 5.07263 -0.621179 0.157015 -0.123602 5.48289 -3.97677 0.420757 -0.309659 0.0482029
241 1 0.149986 11.5192 3.4642 -2.41095 0.904273 -0.0212207 0.0946225 -4.01481 -0.280305 0.0555507 0.339064
243 1 2.87755 11.525 3.4095 -0.234391 0.744033 0.670144 0.256687 -3.98595 0.205144 0.0730161 0.0741135
136 1 7.34978 10.1327 1.98476 0.629619 0.98562 1.20116 5.04769 -4.04153 -0.64978 -0.0547126 -0.289292
235 1 5.87066 8.81598 3.43434 0.465343 -1.43871 1.4062 0.393129 -3.99179 -0.585929 -0.750256 0.212783
237 1 8.63235 8.75913 3.66561 2.56455 0.935182 0.542097 0.390344 -4.07901 -0.00434463 0.180637 -0.512317
245 1 5.87987 11.5851 3.50138 0.240801 -0.541356 -0.243051 0.425199 -3.98245 -0.284909 -0.094918 -0.0413615
247 1 8.6244 11.498 3.6147 0.432483 -3.51449 2.45946 0.203666 -4.06369 0.08341 0.277517 -0.244429
231 1 14.2058 8.74973 3.46313 -0.187028 1.52542 1.17023 0.0874823 -4.02714 0.75624 -0.25898 -0.128798
138 1 9.92992 10.142 1.91521 -1.64946 -2.47072 4.24093 5.30114 -4.07586 0.496608 -0.5649 0.483486
140 1 12.8378 10.2224 1.92369 -3.06779 0.590986 0.953237 0.199302 -4.03765 -0.785537 -0.280774 0.386939
239 1 11.364 8.67474 3.47078 1.07823 -1.10089 5.00007 0.101834 -4.0243 0.163629 0.343043 0.0622717
240 1 12.788 10.0949 4.91602 0.473313 1.12475 -2.36237 0.399335 -3.92386 0.377198 0.658502 0.774683
249 1 11.3994 11.5636 3.6035 0.00818624 4.09037 -1.73351 0.261551 -4.01007 -0.529291 -0.419892 -0.124643
142 1 1.52181 13.0509 2.03053 -1.28477 -4.17543 2.9049 0.366261 -4.02267 -0.0070673 -0.202235 0.0395626
144 1 4.29805 12.8216 1.8554 1.81958 -2.20134 0.0142737 4.94243 -3.96805 0.660194 0.741591 0.549348
152 1 1.51339 15.8576 2.00533 -0.669006 2.84052 -0.820189 5.41017 -4.08507 0.141864 -0.435206 -0.424483
154 1 4.25725 15.7179 1.91549 2.46855 -1.35996 -1.82568 0.309517 -3.97412 0.628215 0.44289 -0.281667
242 1 1.53992 12.9165 5.04043 0.280113 3.4737 -1.1283 0.125705 -4.04031 0.194592 0.302151 -0.114129
244 1 4.24982 12.7782 5.06848 2.14938 -0.0921022 -0.749942 5.40944 -3.9857 0.294269 0.300162 -0.185192
251 1 0.128475 14.4623 3.56804 2.68999 -0.1114 0.508103 0.230997 -3.97777 -0.0212757 -0.203316 -0.061
252 1 1.63436 15.7834 4.94817 -3.12021 0.366244 0.726554 4.68398 -3.94139 -0.143785 -0.287133 0.222054
253 1 3.02926 14.3678 3.54146 0.643288 -2.70259 -2.00417 0.363535 -3.96873 0.228709 0.0641343 0.192438
146 1 7.13468 12.9886 1.93063 1.04428 0.1527 -2.62964 0.133219 -3.86127 0.837298 -0.490885 0.278691
156 1 7.1141 15.8395 1.95899 -5.45427 -4.00032 2.42238 0.299079 -3.99117 0.332772 0.0998506 -0.0995189
255 1 5.79332 14.3612 3.45415 0.949383 2.2935 -3.25327 0.184268 -3.9817 -0.538741 0.271945 0.102209
256 1 7.19239 15.8423 4.97095 -0.861153 0.781607 -0.146585 0.395019 -4.02259 0.239792 -0.385002 0.120919
257 1 8.60857 14.4287 3.55879 -2.00567 3.54744 2.76289 0.0754285 -3.97103 -0.203305 -0.780715 -0.279529
148 1 10.0789 12.8625 2.03315 2.53119 -0.204599 1.59625 5.2801 -3.95322 -0.166133 0.599788 -0.314554
150 1 12.8144 12.9078 1.99748 0.842405 -1.04171 -0.584461 0.162535 -4.04946 0.445801 0.390476 0.15741
158 1 10.0599 15.8093 2.01521 1.95172 -4.28031 -2.67566 0.264757 -3.93811 0.120582 -0.326534 -0.0287057
160 1 12.7974 15.8078 1.91048 2.05154 2.79304 -0.0709358 0.203163 -3.98237 0.208121 0.0501866 0.748293
250 1 12.9049 12.9601 5.01859 1.45982 -1.9964 -1.75047 0.275961 -4.01704 0.117561 -0.369604 0.350092
259 1 11.5154 14.2983 3.49975 2.36546 0.76793 -0.871017 0.269458 -4.01806 -0.372881 0.234373 0.208951
162 1 1.61205 18.4318 1.94405 0.103087 0.473685 0.329909 5.13395 -3.98812 0.0692358 0.614398 0.119609
164 1 4.41893 18.6151 1.82464 -0.211573 3.22505 -5.20284 0.360065 -3.98766 -0.310923 -0.741823 0.242941
262 1 1.64124 18.6991 5.05661 -1.57751 0.894061 -4.43727 5.14035 -4.01605 -0.783266 -0.582921 -0.129457
263 1 3.02324 17.1738 3.48578 -2.37006 -0.133771 0.32695 0.271913 -4.02754 -0.317193 0.121849 0.599557
271 1 0.239882 19.931 3.38982 -2.9132 -1.24747 -1.34561 0.614521 -4.00406 0.0150874 -0.0933525 0.212318
273 1 3.06119 20.0027 3.50261 0.40391 -0.0741893 3.19324 5.52274 -3.99404 -0.367926 0.572132 -0.257558
166 1 7.16241 18.5363 1.92491 0.698547 0.150344 -2.49931 0.187425 -4.02847 -0.133967 -0.0717645 -0.158586
265 1 5.71847 17.1429 3.62739 -1.6126 -0.82668 -3.54668 0.46046 -4.00425 -0.665984 0.124261 0.0110093
266 1 7.25348 18.553 4.97225 1.95445 3.37989 -0.145865 5.04463 -3.92416 -0.469314 -0.211602 -0.120388
267 1 8.63962 17.1234 3.42446 1.62128 1.24999 -1.44411 0.273829 -3.97075 0.0259062 0.323381 0.504201
275 1 5.66392 19.9514 3.50917 0.0670137 -1.38317 -3.87798 5.20637 -3.99425 0.295627 0.0531013 0.0820487
277 1 8.52362 20.0544 3.49799 0.898333 -0.0775842 -0.479706 0.260412 -4.02188 0.592865 0.278621 -0.071227
261 1 14.1769 17.1487 3.58249 3.22524 -0.724689 1.23685 0.360518 -4.03433 -0.0933839 0.405334 -0.0301268
168 1 9.9888 18.5753 1.96957 -3.61858 0.233632 -1.83299 0.218649 -3.95507 -0.41907 -0.645153 0.117162
170 1 12.8038 18.6463 2.08006 0.900172 4.64776 -2.52583 0.345039 -4.0249 0.159238 -0.777501 0.0734659
269 1 11.4148 17.1891 3.69288 1.22914 3.37173 -1.05524 0.41557 -3.98687 0.499588 0.101271 -0.985618
270 1 12.909 18.7314 5.06209 -1.75346 -1.91228 -0.862528 5.43399 -3.96396 -0.157856 -0.201561 0.637515
279 1 11.3598 20.0486 3.4752 2.0114 -4.45816 0.994583 0.276615 -3.93741 -0.0959488 -0.0560721 0.389989
172 1 1.47279 21.4257 1.9728 2.33301 -0.225112 2.95214 0.282116 -4.00369 0.807397 -0.181221 0.230342
174 1 4.32705 21.4567 1.81312 -1.27528 -0.710527 -1.51037 0.285171 -4.01013 0.113655 -0.234684 0.292263
182 1 1.5749 24.1646 1.92321 -0.784188 -3.79054 -2.16947 0.0654467 -4.02308 -0.38278 0.42344 0.548431
184 1 4.3073 24.238 1.87875 -0.587332 0.565944 -1.32797 0.146317 -4.0011 0.483712 -0.490984 -0.305534
272 1 1.50093 21.4332 4.97833 -1.3891 0.701157 2.48604 0.386757 -4.05743 -0.168495 -0.380097 0.174404
281 1 0.183488 22.7914 3.56487 -2.74019 0.616667 0.622568 0.16429 -3.95054 -0.37978 0.231872 -0.208444
283 1 2.92311 22.8102 3.58339 1.18139 2.06881 4.32688 0.186624 -3.9393 0.724186 -0.187168 -0.054524
176 1 7.06694 21.3141 1.99436 -3.95137 -1.5893 -1.01736 0.398085 -4.01442 0.318343 0.321063 -0.684493
186 1 7.17879 24.1447 1.82707 2.78581 2.06017 1.88695 0.197746 -3.9175 -0.0295395 0.808257 0.199744
285 1 5.85589 22.7635 3.36866 1.31531 1.02106 -0.50399 0.565125 -3.9355 -0.625113 0.352675 0.656084
287 1 8.6565 22.7436 3.41641 2.42 3.87829 -0.705154 4.93511 -4.0975 -0.288997 0.480204 0.319834
178 1 9.99102 21.4199 1.88366 -1.13098 -1.50552 3.15931 0.254501 -4.03921 0.29363 -0.233037 -0.0858724
180 1 12.8404 21.4228 2.02124 -0.471497 0.0061306 0.269058 0.308815 -4.11599 0.311604 0.387511 0.578714
188 1 10.0407 24.0693 1.77372 -1.30348 -2.27273 0.479064 4.83786 -3.90646 -0.413803 0.94195 -0.269835
190 1 12.925 24.1389 1.89432 -1.55903 -2.12372 1.13416 5.59683 -3.89908 -0.679639 0.0946011 0.283735
280 1 12.8739 21.3633 4.99292 1.61778 1.13426 1.57654 5.63426 -4.03564 -0.252476 0.12842 0.249403
289 1 11.3072 22.8471 3.50357 -3.96248 4.07387 -0.259648 0.497685 -4.0204 0.438762 -0.0438027 0.0448165
290 1 12.8777 24.1232 5.05102 1.06046 -1.98762 3.24564 0.240073 -4.01554 -0.449129 0.444452 0.130028
192 1 1.54582 26.9795 1.95725 0.832332 -0.820942 0.130328 0.15052 -4.03273 0.168482 0.089095 -0.244218
194 1 4.33343 27.1078 1.89783 -1.61671 -3.20912 1.28134 0.253739 -3.98094 0.0463959 -0.661184 -0.596826
291 1 0.123486 25.6243 3.62534 -1.91934 -0.395923 -0.219087 0.402859 -3.94856 -0.00993982 -0.244038 -0.196257
292 1 1.58125 27.1181 4.96335 0.521729 -0.104332 -0.21211 0.282587 -4.04599 0.0893444 -0.309187 0.311553
293 1 3.0799 25.6086 3.47458 2.80973 1.17343 -0.298043 5.85713 -3.92968 -0.914675 0.228142 0.132997
294 1 4.2495 27.1204 5.04329 -1.17778 2.9951 1.58236 0.254745 -3.97464 0.86195 -0.152205 -0.390999
196 1 7.3038 27.0489 2.04466 3.37805 -2.98627 4.17109 4.89629 -3.94095 -0.550199 0.0645364 -0.673759
295 1 5.73558 25.636 3.45297 2.43808 0.681994 -1.51506 0.163879 -3.99387 0.0614074 -0.127046 0.254731
296 1 7.17419 27.0665 4.95281 0.309675 6.50899 -1.89168 0.25754 -3.92028 -0.370333 0.653198 -0.103108
297 1 8.56397 25.5256 3.50112 -0.134748 1.31643 -3.31811 0.356561 -3.98565 1.04757 -0.132375 -0.163895
209 1 11.3537 28.3011 3.57056 -0.393176 -1.47754 0.78913 5.90589 -3.87366 0.728405 0.751987 -0.621927
198 1 9.95313 27.0869 1.83359 0.689763 -0.698924 -1.31982 5.15659 -3.86282 0.465195 0.0568509 1.12406
200 1 13.0099 27.0067 1.88945 5.30296 -0.270392 0.651806 5.52115 -3.91839 -0.512326 0.171935 0.316099
299 1 11.357 25.6421 3.54523 0.613569 6.18239 1.53807 6.24637 -3.88485 -0.0249798 -0.0129672 -0.145595
301 1 0.190771 0.330155 6.50728 0.5675 -0.168496 -2.46061 4.9286 -4.05029 -0.2118 -0.533034 0.0565534
302 1 1.52998 1.64637 8.34672 -1.42736 -3.15682 0.972455 0.311019 -4.00297 -0.131677 -0.161645 -0.0227497
303 1 2.87995 0.257353 6.66686 0.341516 -0.0404191 -2.60214 0.187568 -4.04773 0.274545 -0.243366 0.158749
304 1 4.29008 1.6221 8.18215 -4.04083 -0.468429 4.02966 0.157815 -3.9383 -0.0328141 0.967027 0.113753
311 1 0.149724 2.85167 6.65825 -1.74976 0.28104 0.763369 5.21751 -3.92263 -0.436777 1.38761 -0.698237
313 1 2.89377 2.99568 6.54071 0.148637 -0.416692 -0.495992 0.36089 -3.91941 0.103862 0.414675 0.590491
305 1 5.63949 0.272746 6.66238 -2.6762 0.601797 -1.53878 5.0804 -3.88087 0.493624 0.0845833 -0.689458
306 1 7.16827 1.7968 8.2126 -0.497955 1.38302 -0.554626 5.79932 -3.90678 -0.600639 -0.897229 0.00907747
307 1 8.54451 0.339894 6.7084 2.06573 -1.47317 -0.377265 0.330691 -4.00831 -0.427771 -0.584319 0.302839
315 1 5.88369 2.98404 6.57567 0.746495 3.22544 0.384377 5.28095 -4.00061 -0.624384 0.153047 0.413691
317 1 8.5575 3.091 6.57698 0.877774 1.33708 0.284955 0.0772307 -4.12063 -0.527726 -0.107208 0.336713
208 1 9.93587 1.5992 5.09378 -2.11946 3.54369 -4.60115 0.12456 -4.08983 0.43956 0.281496 -0.0330149
210 1 12.7168 1.62492 5.12322 1.93469 -2.84729 3.21644 0.358842 -3.96048 0.100284 -0.136951 -0.269148
308 1 9.85407 1.73124 8.16772 -3.32365 0.641461 0.348771 0.20771 -3.98747 0.695184 -0.277457 -0.0051196
309 1 11.427 0.271834 6.70623 2.261 -0.338001 1.59023 0.154305 -3.97743 -0.436425 -0.150589 -0.13551
310 1 12.8338 1.67333 8.18977 -2.12593 2.9352 -1.91821 0.172985 -3.96721 -0.425356 -0.52642 0.462602
319 1 11.2832 3.0542 6.66618 1.40137 -1.12676 -0.599603 0.110027 -4.02499 0.415637 0.061701 0.0545858
212 1 1.5107 4.56417 5.10019 1.71349 1.1107 -0.37813 5.44549 -4.01185 0.142808 -0.208444 -0.311824
214 1 4.35594 4.34938 5.119 -3.60792 0.888428 1.10906 4.95932 -3.97508 0.178539 0.784059 -0.289424
222 1 1.54559 7.23945 5.07792 2.60978 -1.28947 -2.65909 0.158534 -4.02449 -0.0398492 -0.096302 -0.0656041
224 1 4.45542 7.31972 5.11518 2.28078 -2.16034 3.83898 0.303292 -3.96404 -0.922531 0.19811 -0.189432
312 1 1.51633 4.46751 8.14386 6.58074 -1.87872 -2.48992 0.250537 -4.00394 0.216321 0.136532 -0.0306207
314 1 4.38482 4.47065 8.26298 1.38421 -0.500902 1.94911 0.16108 -3.91665 -0.0623332 -0.243016 -0.203291
322 1 1.50912 7.24612 8.12955 2.77664 -2.04083 2.3912 0.112384 -3.98404 0.0742712 -0.318481 -0.137641
323 1 3.05231 5.91185 6.59022 -1.31866 2.39502 -0.268551 0.265451 -3.97668 -0.491652 -0.02102 0.287921
324 1 4.3708 7.29584 8.15821 1.4459 0.563605 -1.51929 0.128872 -4.00429 -0.0956856 -0.227979 -0.405898
226 1 7.22143 7.27669 5.0808 -1.92098 2.73055 -2.00716 0.112021 -4.03855 -0.0264637 0.312727 0.394299
316 1 7.10763 4.57462 8.19767 2.31643 -3.52172 -0.258836 0.360267 -4.0232 -0.0519115 -0.755464 -0.21116
325 1 5.76431 5.8264 6.5305 -2.43851 2.57701 -2.10025 0.261573 -3.99421 -0.101122 0.39923 0.0996556
326 1 7.19795 7.24786 8.10809 -1.71798 -0.00966545 0.572563 0.265737 -4.05018 -0.34359 0.357151 -0.395207
327 1 8.55272 5.78657 6.73897 -1.12912 -0.410511 1.0442 0.538982 -3.98319 -0.142727 0.336671 -0.856274
228 1 9.92162 7.27115 5.16265 0.0778168 -0.255412 1.79302 0.265235 -4.00914 0.391958 0.222351 0.0862935
321 1 14.1448 5.82456 6.63055 4.06995 0.134137 -0.309495 0.200379 -3.98055 -0.0314534 0.435333 -0.168072
318 1 9.98504 4.43593 8.1622 1.75132 -4.65897 3.2673 0.0890872 -4.0183 0.131151 0.328196 -0.00725246
320 1 12.7757 4.48205 8.16918 1.89733 -3.11783 2.82706 0.187952 -3.95449 0.126654 -0.855622 -0.188814
328 1 10.0129 7.28399 8.04077 2.65819 -0.927283 -2.4793 0.512073 -3.98403 -0.113346 -0.0476707 0.182193
329 1 11.4291 5.87426 6.61283 1.9858 -1.38951 -0.786356 0.0744058 -4.0033 -0.161394 -0.207949 -0.633466
330 1 12.8425 7.28945 8.19115 -1.97867 0.420953 -1.07444 0.0954741 -4.06252 0.0988571 -0.152347 0.393997
232 1 1.56015 10.1641 5.09497 2.12226 0.0705619 -0.681687 0.217302 -4.03487 -0.638731 0.139029 -0.568658
332 1 1.46321 10.1244 8.22513 1.59487 2.03124 0.780371 0.279236 -4.0046 -0.325 -0.340316 0.170055