ITEM: TIMESTEP
199500
ITEM: NUMBER OF ATOMS
2000
ITEM: BOX BOUNDS pp pp pp
1.0838953229856951e-01 1.4221610467701321e+01
2.1677906459713903e-01 2.8443220935402643e+01
-5.1976170240314206e+00 6.2517617024030983e+01
ITEM: ATOMS id type x y z vx vy vz c_csym c_peratom fx fy fz
2 1 1.62332 1.66863 -3.49609 -0.282889 -3.25185 -0.636516 0.28061 -3.90626 -0.289969 0.145603 -0.44446
4 1 4.35789 1.61575 -3.57829 0.990702 -5.33602 3.45801 6.18096 -3.8735 0.347441 -0.174343 0.609272
11 1 0.115605 3.14255 -5.14292 0.617832 -0.194419 3.50607 0.266462 -3.81368 0.226019 -0.27029 -0.682769
101 1 0.126621 0.284403 -1.84274 -1.57173 1.46596 2.1275 6.25241 -3.94649 -0.156094 0.0140837 0.0692359
103 1 2.85007 0.270771 -1.77485 0.287695 0.367304 -1.8153 0.254322 -3.79066 0.254368 -0.22528 0.214541
111 1 0.168447 3.08626 -1.8126 -2.2925 0.592843 0.179022 6.37261 -3.88399 0.0154635 0.200481 -0.110949
113 1 2.87763 3.13123 -1.74939 -1.71434 2.42111 -1.1208 11.7836 -3.8486 -0.249258 -0.27347 0.155498
13 1 2.94284 3.10367 -5.17595 -0.0706192 -1.95523 0.774801 0.0781922 -3.84563 -0.158689 -0.1265 -0.0518001
6 1 7.17995 1.58532 -3.50378 -1.53139 -1.81767 -2.43971 0.239107 -3.87278 0.0662593 0.58068 0.201115
17 1 8.63608 3.25517 -5.11878 -1.24355 -0.0988133 -0.860341 10.3317 -3.86861 -0.554951 -0.402493 -0.541051
105 1 5.90739 0.22905 -1.81095 0.812795 -1.48127 -4.16198 5.83869 -3.87592 -0.632472 -0.162666 0.111179
115 1 5.79048 3.13764 -1.82774 -0.932742 0.818202 0.0439582 0.188896 -3.86605 -0.140982 -0.554704 -0.00494485
117 1 8.60233 3.08029 -1.73621 0.475293 0.415756 -1.302 0.189363 -3.84646 0.0894575 0.0229354 -0.657471
15 1 5.86915 3.09703 -5.13256 -1.1078 -3.23994 -0.243916 0.312733 -3.79928 -0.337632 0.101975 -0.158354
8 1 9.98472 1.71462 -3.6351 1.02028 2.64764 -1.65962 5.60319 -3.86751 -0.0977732 0.043875 0.738355
9 1 11.3244 0.287262 -5.08331 -0.628437 1.37052 0.162777 5.83771 -3.86855 0.54946 -0.00516524 -0.249696
10 1 12.8557 1.68831 -3.57768 -0.261261 2.58464 0.684826 0.156143 -3.85562 -0.0506225 0.341661 0.29263
109 1 11.3921 0.306018 -1.84501 4.17545 -4.26001 3.01885 6.93574 -3.85125 -0.385694 -0.0731545 -0.149333
119 1 11.4562 3.11085 -1.9066 -0.877516 0.612354 1.13148 0.171611 -3.89535 -0.220521 -0.341107 0.34897
12 1 1.52356 4.6359 -3.61247 1.18436 1.40208 1.05812 6.13886 -3.85104 0.159385 -0.801166 0.218073
14 1 4.34915 4.42365 -3.39023 -0.761965 1.11821 -1.53086 0.289549 -3.91361 -0.0753594 0.533639 -0.33744
22 1 1.54026 7.32431 -3.58141 0.529166 1.27637 -0.648244 6.1843 -3.83176 -0.251901 -0.0325375 0.907408
23 1 3.01689 5.92797 -5.16627 4.21453 0.286138 -0.65637 6.04123 -3.8423 -0.40614 -0.285898 -0.304079
24 1 4.35552 7.36387 -3.50179 0.718611 1.41969 0.425215 0.118274 -3.86517 -0.196898 0.117273 0.459993
121 1 0.132435 5.82793 -1.8205 -2.35864 3.10392 -0.471262 0.202986 -3.84914 -0.0510281 0.248059 0.228062
123 1 3.01618 5.86763 -1.71246 1.00139 1.8653 -1.24788 6.15396 -3.84942 -0.0961924 0.20158 -0.377023
16 1 7.14135 4.5226 -3.41428 0.603539 0.154603 0.133915 5.62661 -3.9155 0.3227 -0.294016 -0.225784
25 1 5.70759 5.92495 -5.06383 -0.827089 1.1553 2.35682 5.32522 -3.90225 0.463255 -0.25773 -0.651959
26 1 7.1412 7.16975 -3.558 -0.0337704 2.62343 0.778117 5.52773 -3.81892 -0.0540669 0.828357 0.15864
125 1 5.74127 5.95799 -1.77135 -0.136011 -2.75282 -0.154075 6.08215 -3.97363 0.26614 -0.0791216 -0.14872
127 1 8.57446 5.88387 -1.92497 -1.51658 -3.67076 0.00771245 0.442028 -3.83105 0.181971 0.277817 0.568875
18 1 10.0587 4.47472 -3.50012 2.01504 1.15568 0.108705 0.229289 -3.90507 0.0910229 0.378099 0.323255
20 1 12.7939 4.54238 -3.53828 -0.022531 3.00342 -1.17168 0.0695945 -3.95257 0.0139451 -0.160343 -0.00432121
28 1 10.1169 7.35391 -3.39891 1.08986 -1.21663 1.80841 5.8245 -3.87517 -0.416024 -0.359666 -0.356251
29 1 11.4127 5.98723 -5.17736 1.3822 1.47477 -0.555896 0.0553277 -3.9043 -0.357259 -0.0237856 -0.213369
30 1 12.8531 7.28188 -3.43114 0.362699 -0.519128 0.486825 0.142501 -3.90949 -0.00174523 0.0850451 0.135837
129 1 11.3642 5.90889 -1.76325 -0.995542 1.01394 2.2528 0.118648 -3.9697 0.412882 0.115811 -0.0912188
32 1 1.48279 10.1923 -3.57855 2.66336 -1.18469 0.933482 5.56541 -3.95957 0.181607 -0.0692922 0.475474
34 1 4.32744 10.195 -3.57751 -3.42019 -1.92301 1.41173 6.91551 -3.86673 -0.0297742 -0.325469 0.227114
43 1 2.92107 11.628 -5.17213 2.17426 0.782241 3.50485 0.132131 -3.98877 -0.0665163 -0.498195 -0.62615
133 1 2.87707 8.77788 -1.78258 -1.44944 0.975575 0.710255 0.096296 -3.78238 0.169922 0.117554 0.330004
141 1 0.146359 11.6297 -1.91255 -2.20193 -7.04944 -1.51669 0.373082 -3.9164 -0.264919 0.0434154 0.775132
143 1 2.92416 11.521 -1.80941 -0.572232 1.1909 1.77002 6.64604 -3.95084 -0.139246 0.0473897 -0.0537015
36 1 7.17897 10.1662 -3.44804 0.10168 3.47717 0.174941 5.84821 -3.81032 0.137402 -0.269159 -0.191722
47 1 8.63625 11.4798 -5.08022 -1.46078 2.66256 0.234251 0.317934 -3.87996 -0.160934 0.229849 -0.723943
135 1 5.71447 8.72482 -1.69585 -0.880733 0.590278 -0.109653 6.05171 -3.80569 0.154023 -0.021985 -0.412645
137 1 8.61908 8.74613 -1.88308 -4.19951 1.4167 -2.48788 0.407662 -3.89076 -0.193502 -0.0787987 0.10695
145 1 5.78797 11.4174 -1.80645 0.913579 -3.10787 0.676852 6.08479 -3.84283 0.0119691 0.661971 0.563538
147 1 8.63173 11.5707 -1.68953 -2.52053 -2.66134 -2.016 0.215913 -3.89802 -0.27399 0.476814 -0.729782
37 1 8.64539 8.6808 -5.04625 -0.410704 1.96136 0.795798 5.74815 -3.9245 -0.114784 0.468975 -0.225074
41 1 14.1834 11.5242 -5.08468 -1.35835 -5.95404 3.83557 0.279021 -3.92566 -0.309936 0.271191 -0.325872
131 1 14.189 8.78043 -1.67207 -1.59748 2.05417 3.03081 6.15529 -3.80577 0.215417 -0.160074 -0.339993
38 1 10.1092 10.2499 -3.3701 0.647054 3.02786 -2.05404 0.509549 -3.91457 -0.293793 -0.724645 0.135488
39 1 11.3428 8.78317 -5.13793 2.80774 -0.622395 -1.00191 5.55077 -3.89017 0.567222 -0.125852 0.236328
40 1 12.8549 10.1114 -3.35017 -1.75728 -0.634733 -0.267602 6.3941 -3.88647 -0.097594 -0.265321 -0.600518
139 1 11.4119 8.69776 -1.71043 -0.425376 2.4171 -0.0430739 0.119271 -3.96994 0.416139 0.197954 -0.271749
149 1 11.4267 11.5446 -1.70942 -0.904464 -0.906018 0.248794 0.191755 -3.92756 0.330475 0.301268 -0.287195
49 1 11.351 11.4979 -5.1053 -3.94296 -1.72452 -3.57845 0.15134 -3.86346 0.532984 0.397018 -0.164324
42 1 1.60077 12.9976 -3.5974 -0.841826 -0.173751 0.753914 5.67911 -3.88085 -0.613665 0.243342 0.432487
44 1 4.30049 12.9516 -3.61476 -1.17519 0.372824 -0.13007 6.46078 -3.93871 0.291866 0.300009 0.493064
52 1 1.58776 15.7356 -3.33511 -0.585983 1.26946 1.71295 5.43347 -3.73325 -0.403879 0.239226 -0.441635
54 1 4.38463 15.6552 -3.50561 0.269637 0.959657 1.9614 6.12521 -3.93559 -0.358821 0.487346 -0.496161
153 1 2.9946 14.2978 -1.79441 -3.03426 -0.361765 3.65674 6.16131 -3.86523 -0.380391 0.244615 0.14688
46 1 7.13899 12.8477 -3.53372 -0.042375 -0.703018 -2.37022 5.54031 -3.85918 -0.0337687 0.223472 0.429065
56 1 7.08452 15.7726 -3.59599 0.19616 0.505449 -1.21975 0.292068 -3.95284 0.155515 -0.106968 0.349755
155 1 5.76502 14.3443 -1.85944 -0.699273 2.50818 -2.71856 0.106932 -3.88177 0.00999756 -0.106651 0.406392
157 1 8.53251 14.4644 -1.76336 1.77519 1.9958 -4.01974 11.1335 -3.85531 -0.0879752 -0.246884 -0.094503
57 1 8.49816 14.3386 -5.03695 5.27468 2.46447 0.151665 0.602011 -3.76687 0.50875 -0.126539 -0.606729
51 1 14.0057 14.3518 -5.19714 5.08997 3.62125 -2.07853 10.1369 -3.79616 1.11541 -0.165478 0.13809
151 1 14.2009 14.4155 -1.78481 -4.71089 2.01634 -0.85659 0.136872 -3.79281 0.066251 -0.491165 0.0251163
48 1 9.93985 13.0563 -3.4758 2.86016 2.34417 0.701272 5.57174 -3.88534 0.275069 -0.671614 0.0199858
50 1 12.7181 12.9904 -3.47889 0.559624 -1.36974 -0.820506 0.196928 -3.8865 0.120859 0.0917238 0.0677637
58 1 9.99316 15.7186 -3.49641 -3.3381 -1.51398 5.38263 5.66672 -3.95057 0.00161075 0.508301 0.32744
60 1 12.7967 15.7437 -3.48998 1.53771 1.90327 -4.70531 0.11865 -3.95903 -0.450052 -0.0558637 0.391057
159 1 11.3491 14.3264 -1.72761 -0.265735 -1.65506 -3.98071 0.160078 -3.89622 0.0993748 0.352035 0.0347501
62 1 1.43944 18.5161 -3.4494 0.272627 0.831543 -0.200207 0.119939 -3.84202 -0.0475254 0.00985486 -0.489125
64 1 4.38586 18.6552 -3.44464 1.24428 1.0664 2.86252 5.7067 -3.86205 -0.0258571 -0.679197 0.222442
163 1 2.94245 17.1558 -1.91408 0.341627 2.40032 0.506019 0.45084 -3.87987 0.457615 -0.0354011 0.434536
171 1 0.141802 19.9783 -1.68515 -0.0590841 -1.37942 4.27312 0.191774 -3.93679 -0.31059 -0.18204 -0.206352
173 1 2.89555 19.9823 -1.81947 0.785649 -1.23368 2.3689 0.157567 -3.93401 -0.21057 -0.0606722 0.270923
66 1 7.24355 18.6165 -3.44553 2.75597 -4.35103 0.905848 5.15021 -3.9199 -0.543917 -0.127163 -0.256285
67 1 8.57677 17.1461 -5.17012 -4.30079 -3.56988 1.31798 0.049673 -3.97709 -0.093351 -0.185558 -0.0797546
165 1 5.78304 17.093 -1.86972 1.97311 1.99329 -0.167527 0.257028 -3.89208 -0.060186 0.33265 0.302618
167 1 8.56005 17.078 -1.93023 1.63712 1.01306 -0.622391 5.07171 -3.90443 -0.000719476 0.249041 1.05302
175 1 5.70632 20.007 -1.79005 -3.42076 -2.85137 2.01629 0.143066 -3.91079 0.134563 0.176139 -0.122176
177 1 8.58858 20.043 -1.55697 -1.05917 0.80188 -0.731301 5.57297 -3.83793 -0.102291 -0.256941 -0.652012
75 1 5.71713 19.9361 -5.18691 -4.53949 -0.9021 2.29786 6.64691 -3.86892 -0.267185 0.062745 -0.310165
65 1 5.67248 17.193 -5.14368 -1.31158 -3.63153 -0.620776 0.35713 -3.90325 -0.117896 0.00162932 -0.550907
161 1 14.1852 17.2046 -1.67922 -8.06951 -0.86164 0.0732044 0.241892 -3.95608 0.286704 0.0393653 -0.613592
68 1 9.83757 18.5862 -3.41565 1.01621 0.95189 3.77626 5.7779 -3.89855 0.75764 0.311742 -0.504144
70 1 12.7582 18.5098 -3.46152 -2.75978 -0.241021 0.901339 0.164135 -3.8085 0.38827 0.733151 0.208389
169 1 11.4357 17.1907 -1.802 -0.050047 0.778513 1.36961 0.117667 -3.87538 -0.544264 0.102329 0.302626
179 1 11.4548 19.9395 -1.70515 0.478562 4.61523 -0.247094 6.3776 -3.90605 -0.0471773 0.128899 -0.42193
69 1 11.3235 17.1806 -5.07772 2.51938 -0.439877 2.89062 5.90493 -3.86532 0.103308 -0.211144 -0.680233
71 1 14.189 20.001 -5.07017 -3.02828 1.71166 0.793185 0.333838 -3.77705 -0.402245 -0.644201 -0.592751
61 1 14.2026 17.0274 -5.11587 -2.79754 0.110739 5.17862 5.4604 -3.81654 0.157475 0.0591077 -0.160843
72 1 1.54936 21.3951 -3.55525 2.3338 -3.4761 -2.56089 6.16922 -3.95479 -0.287541 -0.442607 0.001512
74 1 4.24289 21.3195 -3.40841 -0.775897 2.76848 -0.309503 5.41459 -4.02488 0.808845 0.220565 -0.646674
82 1 1.5098 24.075 -3.63733 -0.197856 1.54937 -4.05427 5.88089 -3.92476 -0.0893549 0.644422 0.0149278
84 1 4.24694 24.1216 -3.47148 1.75243 2.83472 -4.12876 5.47985 -3.85895 0.538512 0.306307 -0.204323
181 1 0.128659 22.763 -1.86026 -3.03311 -1.67311 -0.629939 0.0505044 -3.93421 -0.231915 -0.339331 0.0473399
183 1 2.89382 22.7594 -1.90824 0.572942 -1.11899 -0.365379 0.190378 -4.01424 -0.393162 -0.0560059 0.254685
76 1 7.14056 21.2635 -3.50112 -0.691281 0.193514 1.05787 5.7966 -3.74962 0.197908 0.496418 0.424887
86 1 7.25436 24.2668 -3.49815 -2.43118 3.29649 -1.15762 12.0135 -3.75732 -0.330645 -0.564299 -0.178416
185 1 5.72509 22.8979 -1.90252 3.67767 -2.14848 -3.35625 5.86023 -3.92624 0.122962 -0.733903 0.500388
187 1 8.47118 22.692 -1.70893 -0.732136 -0.532565 -1.73565 5.66467 -3.87227 -0.042051 0.155517 -0.500539
78 1 9.92402 21.3232 -3.56381 -2.14879 -1.2859 1.20999 5.9682 -3.87062 -0.0340143 0.208867 0.836767
80 1 12.7264 21.3466 -3.47914 -2.02506 0.894117 1.33119 0.0671062 -3.85675 0.221789 0.0284389 -0.304802
88 1 9.99398 24.1702 -3.45211 -1.34963 2.3224 -3.76156 6.26503 -3.8261 -0.106585 -0.21432 -0.147928
90 1 12.8226 24.1983 -3.60118 -3.32555 -1.34099 0.789537 0.195946 -3.81437 -0.548449 -0.173781 0.39922
189 1 11.404 22.6532 -1.88067 1.1462 2.87937 3.03823 5.50369 -3.80618 0.408471 0.31598 0.317524
92 1 1.49183 27.0716 -3.51318 -1.55268 0.823337 -0.21304 0.0711949 -3.82657 -0.0672248 -0.00849662 0.0235046
93 1 2.95679 25.6072 -5.17545 -2.98218 -1.24306 2.03838 0.190636 -3.82345 -0.104506 0.476418 -0.454042
94 1 4.31233 27.0701 -3.33484 -2.42482 -0.468398 -1.32983 5.38023 -3.82641 -0.274752 -0.198685 -0.410823
193 1 2.87926 25.4829 -1.89153 -1.0862 0.475835 1.41936 5.90539 -3.86261 0.156883 0.716026 -0.0476015
5 1 5.72241 28.2956 -5.10664 2.69086 -0.906142 0.0342517 5.39757 -3.87288 -0.091271 0.393287 -0.598785
107 1 8.62684 28.3911 -1.77054 1.62718 -2.83475 -3.52836 11.8511 -3.94433 -0.341021 0.545288 -0.416459
96 1 7.19496 27.0059 -3.51068 3.8854 -2.09663 -3.2721 5.87853 -3.9672 -0.199834 -0.222494 0.307401
195 1 5.7699 25.6353 -1.87458 -1.7019 -1.17403 1.74296 6.23499 -3.79172 0.232676 -0.201461 0.610754
197 1 8.65402 25.6862 -1.81499 -0.592902 -0.620959 0.00800132 0.338417 -3.95571 -0.711334 -0.702769 0.169147
7 1 8.51249 28.4072 -5.08284 0.305773 -1.36188 3.04787 0.385453 -3.89601 0.14268 -0.11738 -0.475733
191 1 14.1954 25.5315 -1.86417 -0.0885336 -4.4938 -0.48509 0.211392 -3.81426 0.540968 0.113385 0.0229268
98 1 9.85719 27.0277 -3.56062 2.60699 4.64685 0.62246 5.86668 -3.97403 0.732271 -0.175777 -0.158847
100 1 12.8111 27.1397 -3.49868 0.688756 2.41483 -3.36628 0.113489 -3.85507 0.160079 -0.153078 0.0142862
199 1 11.3947 25.7747 -1.81321 -1.77748 -0.753815 0.440887 10.7883 -3.80819 0.579835 -0.370237 -0.582816
99 1 11.3966 25.6653 -5.12727 -3.11862 -0.640777 0.494149 0.148754 -3.89301 -0.216832 -0.177598 -0.334054
102 1 1.43258 1.58866 -0.0888703 7.38627 -3.29026 1.48818 0.304767 -3.94855 0.387882 -0.015799 -0.10219
104 1 4.40471 1.70471 -0.190127 -2.62904 -0.431866 -2.50035 0.245541 -3.83268 -0.408133 -0.14705 0.094809
202 1 1.64591 1.56967 3.13752 2.02744 3.5456 -1.59179 4.97765 -3.98517 -0.603989 0.635154 0.162713
203 1 2.94499 0.259696 1.526 -1.3304 -3.48688 0.0854903 0.134103 -3.99226 -0.051232 -0.252833 -0.813236
204 1 4.18458 1.68524 3.22863 -0.935437 1.48785 2.63114 10.4164 -3.92358 1.2609 -0.281886 -0.0608875
213 1 2.88677 3.08084 1.48757 -2.28947 -0.845795 -1.07431 0.384521 -3.91884 0.280236 -0.541881 0.288779
106 1 7.15632 1.63052 -0.207032 0.736671 -1.16949 0.0239501 0.269969 -3.97112 0.291304 0.569084 0.650926
205 1 5.64874 0.299036 1.37516 2.33469 0.995414 0.291621 9.72814 -3.81118 0.29031 -0.503876 0.948658
206 1 7.2548 1.68985 3.18542 -1.46106 -1.55409 1.7364 10.8817 -3.85975 -0.353476 -0.535488 0.171865
207 1 8.58474 0.236208 1.61107 1.31666 3.04051 1.49325 0.169732 -3.88975 0.350281 0.0334958 -0.537257
215 1 5.78167 2.95842 1.66983 -1.49422 -2.50707 3.51511 0.566692 -3.86128 -0.133293 0.204567 -0.30515
217 1 8.60442 3.0921 1.55198 -1.80041 2.92479 -5.24384 0.125294 -3.96341 -0.297256 0.142858 0.0208565
201 1 14.2143 0.277593 1.61515 -0.76465 1.66164 -3.30675 0.342096 -3.91016 -0.291051 -0.153435 0.11315
211 1 14.1953 3.09372 1.67555 0.131749 -3.47244 0.658656 0.310693 -3.82123 0.395894 -0.682839 0.0708668
108 1 9.98023 1.81548 -0.0646718 1.78008 -0.0382443 0.481447 6.03765 -3.80073 0.291786 -1.0259 -0.309166
110 1 12.7567 1.63776 -0.16556 0.143622 0.261967 0.471904 0.171445 -3.78278 0.133003 0.315157 0.179017
219 1 11.4042 3.08595 1.57975 2.96876 -3.6 -0.306264 0.0675695 -3.8551 0.229436 -0.112224 0.203037
112 1 1.47335 4.44722 0.00473221 -2.08488 5.53109 1.88305 0.270375 -3.8622 0.122029 0.488411 -0.286702
114 1 4.45714 4.53943 0.0186177 0.408107 -1.46821 1.68028 5.56197 -3.91338 -0.435216 -0.42862 -0.651641
122 1 1.5387 7.19477 -0.0319962 -2.178 2.10286 -1.52883 0.27237 -3.77291 -0.0157878 0.392561 0.0220808
124 1 4.30599 7.3213 -0.0573446 -1.70609 -0.894295 0.386355 0.164176 -3.882 0.204957 -0.0188441 0.0811749
223 1 3.00176 5.86832 1.62387 -2.9209 -3.41332 -1.19244 0.121222 -3.90538 -0.419219 0.207741 0.131814
116 1 7.08446 4.43511 -0.0568702 -0.717838 -0.661302 1.69127 5.68437 -3.87609 0.373515 0.00943345 -0.361043
126 1 7.33953 7.39572 -0.0803723 1.37971 -3.46356 0.697126 5.92149 -3.78536 -0.43518 -0.558364 0.0109266
216 1 7.15048 4.45322 3.1391 0.663868 1.20315 1.59813 0.384277 -3.95148 0.200873 0.203325 0.127109
225 1 5.7941 6.05956 1.52882 0.299468 -1.75276 -1.18853 5.95402 -3.84807 0.179714 -0.305814 -0.0368411
227 1 8.61587 5.8789 1.53616 -0.532809 -0.371899 0.126652 0.148961 -3.88447 -0.262601 -0.016314 0.211341
221 1 14.1524 5.86373 1.63958 0.796103 -1.93786 -0.0692733 0.139916 -3.90842 0.549697 0.376401 -0.158815
118 1 10.0291 4.4796 -0.0981953 -2.00022 0.251406 -1.34662 5.92621 -3.96665 0.0171719 -0.257448 -0.52826
120 1 12.7727 4.51546 -0.169483 -2.93314 -0.0391201 0.674702 0.13229 -3.89924 0.204385 -0.104106 0.47521
128 1 10.0124 7.32217 -0.152516 -2.7644 2.28321 3.1472 5.97226 -3.95549 -0.586456 0.174857 -0.162714
130 1 12.7448 7.26336 -0.145922 -1.8326 -3.86476 -3.53257 0.183454 -3.90992 0.0849383 -0.322784 0.341365
218 1 9.92391 4.44006 3.26459 2.54663 2.02038 1.45237 0.091411 -3.92636 0.567419 0.11159 0.0477268
220 1 12.7806 4.44772 3.25544 -0.879614 -1.25736 1.20844 0.0683084 -3.80751 -0.181799 -0.116369 0.165638
229 1 11.2652 5.91426 1.61703 0.58398 1.74186 -1.1864 5.57497 -3.92687 0.981231 0.121504 -0.138796
230 1 12.8446 7.35538 3.17196 2.31232 0.678649 1.21522 0.289719 -3.89472 -0.256155 -0.563487 0.401357
132 1 1.49806 10.2454 -0.190263 0.926583 1.77752 2.20689 0.216455 -3.89856 0.196929 -0.693956 0.61871
134 1 4.33421 10.2257 -0.0373262 -1.95039 -2.01599 -1.69927 5.80158 -3.85296 -0.00967337 -0.351449 -0.342601
233 1 2.86938 8.7146 1.64247 -0.683116 0.194601 5.31636 0.152678 -3.76983 0.419245 -0.293976 -0.370935
234 1 4.30212 10.2221 3.26229 -0.621179 0.157015 -0.123602 11.627 -3.84605 0.163396 -0.692888 0.143304
241 1 0.149986 11.5192 1.53041 -2.41095 0.904273 -0.0212207 0.0994726 -3.94238 -0.444705 -0.211541 0.24832
243 1 2.87755 11.525 1.47152 -0.234391 0.744033 0.670144 0.282844 -3.92189 0.286638 -0.0289566 0.604737
136 1 7.34978 10.1327 -0.0625819 0.629619 0.98562 1.20116 5.35728 -3.959 -0.87592 0.400582 -0.408701
235 1 5.87066 8.81598 1.49826 0.465343 -1.43871 1.4062 0.421985 -3.87458 -0.168817 -0.487546 0.166265
237 1 8.63235 8.75913 1.74728 2.56455 0.935182 0.542097 5.93234 -3.98536 -0.260665 -0.333375 -0.567925
245 1 5.87987 11.5851 1.57045 0.240801 -0.541356 -0.243051 0.428275 -3.87453 -0.301232 -0.199549 -0.0300837
247 1 8.6244 11.498 1.69247 0.432483 -3.51449 2.45946 6.27667 -3.97003 -0.211366 0.637662 -0.101214
231 1 14.2058 8.74973 1.52926 -0.187028 1.52542 1.17023 0.0901225 -3.91064 0.572201 -0.331166 -0.350313
138 1 9.92992 10.142 -0.137467 -1.64946 -2.47072 4.24093 5.63387 -3.97209 0.834324 -0.211907 0.718293
140 1 12.8378 10.2224 -0.128334 -3.06779 0.590986 0.953237 5.62964 -3.93294 -0.603319 -0.46173 0.0800877
239 1 11.364 8.67474 1.5375 1.07823 -1.10089 5.00007 0.108564 -3.90911 0.392937 0.0604922 -0.166339
240 1 12.788 10.0949 3.09366 0.473313 1.12475 -2.36237 10.8026 -3.83595 0.58866 0.130134 1.07407
249 1 11.3994 11.5636 1.68041 0.00818624 4.09037 -1.73351 0.290152 -3.92119 -0.329578 0.0751795 -0.154089
142 1 1.52181 13.0509 -0.0132964 -1.28477 -4.17543 2.9049 0.398225 -3.88496 -0.16316 -0.28485 -0.577115
144 1 4.29805 12.8216 -0.201869 1.81958 -2.20134 0.0142737 5.23336 -3.8734 0.562697 0.67606 0.27684
152 1 1.51339 15.8576 -0.0404283 -0.669006 2.84052 -0.820189 5.77764 -3.98404 -0.0449822 -0.720806 0.00120861
154 1 4.25725 15.7179 -0.137161 2.46855 -1.35996 -1.82568 5.93509 -3.86079 0.723396 0.449781 -0.0938339
242 1 1.53992 12.9165 3.22761 0.280113 3.4737 -1.1283 6.14185 -3.93081 0.12524 0.0394805 -0.167102
244 1 4.24982 12.7782 3.25782 2.14938 -0.0921022 -0.749942 5.79454 -3.85016 0.402624 0.27184 -0.0136511
251 1 0.128475 14.4623 1.64222 2.68999 -0.1114 0.508103 5.81886 -3.89212 -0.0566412 -0.0434554 -0.0832994
252 1 1.63436 15.7834 3.12827 -3.12021 0.366244 0.726554 4.9365 -3.8337 0.0620313 -0.253228 0.158399
253 1 3.02926 14.3678 1.6136 0.643288 -2.70259 -2.00417 0.380657 -3.89123 0.0195821 -0.219177 -0.261407
146 1 7.13468 12.9886 -0.120863 1.04428 0.1527 -2.62964 0.13565 -3.78137 0.49538 -0.429159 0.204902
156 1 7.1141 15.8395 -0.0903222 -5.45427 -4.00032 2.42238 0.313913 -3.89892 0.113861 0.109486 -0.00858552
255 1 5.79332 14.3612 1.51959 0.949383 2.2935 -3.25327 6.40033 -3.85839 -0.531324 0.297273 0.144073
256 1 7.19239 15.8423 3.15281 -0.861153 0.781607 -0.146585 0.430862 -3.95635 0.215535 -0.303427 0.288044
257 1 8.60857 14.4287 1.63226 -2.00567 3.54744 2.76289 5.94301 -3.86124 -0.0573408 -0.464604 -0.455839
148 1 10.0789 12.8625 -0.0104759 2.53119 -0.204599 1.59625 5.57185 -3.85918 -0.485551 0.256513 -0.0660455
150 1 12.8144 12.9078 -0.0488828 0.842405 -1.04171 -0.584461 5.80279 -3.94645 0.487857 0.0956272 -0.413983
158 1 10.0599 15.8093 -0.0297898 1.95172 -4.28031 -2.67566 0.284165 -3.81788 0.128582 -0.353878 -0.131358
160 1 12.7974 15.8078 -0.14256 2.05154 2.79304 -0.0709358 0.22643 -3.87578 0.0649326 -0.375184 0.403298
250 1 12.9049 12.9601 3.2041 1.45982 -1.9964 -1.75047 0.305542 -3.90862 0.0873435 0.0442121 0.29145
259 1 11.5154 14.2983 1.56869 2.36546 0.76793 -0.871017 0.274075 -3.94297 -0.527558 0.748681 0.0276261
162 1 1.61205 18.4318 -0.106406 0.103087 0.473685 0.329909 5.51684 -3.87957 0.110773 0.853252 0.144386
164 1 4.41893 18.6151 -0.234989 -0.211573 3.22505 -5.20284 5.53207 -3.88261 -0.191268 -0.699654 0.495985
262 1 1.64124 18.6991 3.24503 -1.57751 0.894061 -4.43727 5.5106 -3.91082 -0.356906 -0.512349 0.330842
263 1 3.02324 17.1738 1.55365 -2.37006 -0.133771 0.32695 0.290621 -3.94709 -0.313736 0.211283 0.176217
271 1 0.239882 19.931 1.45032 -2.9132 -1.24747 -1.34561 0.655417 -3.90961 -0.333415 -0.0718197 0.39211
273 1 3.06119 20.0027 1.57177 0.40391 -0.0741893 3.19324 5.8873 -3.87421 -0.0281779 0.191138 -0.405203
166 1 7.16241 18.5363 -0.127022 0.698547 0.150344 -2.49931 5.29174 -3.89138 -0.305035 -0.0710756 0.00571744
265 1 5.71847 17.1429 1.70613 -1.6126 -0.82668 -3.54668 4.99543 -3.87962 0.040866 0.156415 -0.619416
266 1 7.25348 18.553 3.15421 1.95445 3.37989 -0.145865 10.1221 -3.80949 -0.380419 -0.0552784 0.698385
267 1 8.63962 17.1234 1.48762 1.62128 1.24999 -1.44411 0.295665 -3.88912 -0.192447 0.708746 0.388944
275 1 5.66392 19.9514 1.57884 0.0670137 -1.38317 -3.87798 5.4864 -3.87921 0.198187 0.126509 0.138989
277 1 8.52362 20.0544 1.5668 0.898333 -0.0775842 -0.479706 5.09876 -3.89775 0.202869 0.178194 -0.152412
261 1 14.1769 17.1487 1.65778 3.22524 -0.724689 1.23685 5.39902 -3.93657 0.26331 0.504677 0.0790756
168 1 9.9888 18.5753 -0.0789318 -3.61858 0.233632 -1.83299 5.68404 -3.85569 -0.210379 -0.264631 -0.101618
170 1 12.8038 18.6463 0.0400409 0.900172 4.64776 -2.52583 0.379395 -3.93963 -0.180435 -0.745336 -0.4003
269 1 11.4148 17.1891 1.77665 1.22914 3.37173 -1.05524 0.467546 -3.89681 0.0697775 0.414282 -0.685243
270 1 12.909 18.7314 3.25094 -1.75346 -1.91228 -0.862528 5.8342 -3.82779 -0.305985 -0.6475 0.0201715
279 1 11.3598 20.0486 1.54225 2.0114 -4.45816 0.994583 6.25115 -3.81357 -0.334156 -0.4021 0.0367917
172 1 1.47279 21.4257 -0.075453 2.33301 -0.225112 2.95214 0.29993 -3.90924 0.43503 -0.0457452 -0.273738
174 1 4.32705 21.4567 -0.247385 -1.27528 -0.710527 -1.51037 0.312245 -3.89059 -0.0590922 -0.410357 0.173672
182 1 1.5749 24.1646 -0.12885 -0.784188 -3.79054 -2.16947 6.48895 -3.90333 -0.306147 0.322528 0.111492
184 1 4.3073 24.238 -0.176723 -0.587332 0.565944 -1.32797 0.150791 -3.9091 0.365192 -0.257742 -0.173133
272 1 1.50093 21.4332 3.16075 -1.3891 0.701157 2.48604 0.422969 -3.96768 0.286071 -0.685138 0.671624
281 1 0.183488 22.7914 1.63881 -2.74019 0.616667 0.622568 0.184229 -3.89258 -0.309942 0.226198 -0.404381
283 1 2.92311 22.8102 1.65875 1.18139 2.06881 4.32688 0.21054 -3.83023 0.754279 -0.209444 -0.488147
176 1 7.06694 21.3141 -0.0522345 -3.95137 -1.5893 -1.01736 5.16204 -3.96147 0.0397233 0.152936 -0.543015
186 1 7.17879 24.1447 -0.23237 2.78581 2.06017 1.88695 0.211964 -3.83646 0.0873289 0.75435 0.57644
285 1 5.85589 22.7635 1.42754 1.31531 1.02106 -0.50399 6.41091 -3.81025 -0.912077 0.250843 0.362241
287 1 8.6565 22.7436 1.47895 2.42 3.87829 -0.705154 11.4586 -3.95277 -0.698523 0.394758 0.324324
178 1 9.99102 21.4199 -0.171433 -1.13098 -1.50552 3.15931 5.96855 -3.99259 0.260522 -0.283563 0.526031
180 1 12.8404 21.4228 -0.0232974 -0.471497 0.0061306 0.269058 0.339835 -3.99941 -0.35264 0.154461 -0.0730131
188 1 10.0407 24.0693 -0.289814 -1.30348 -2.27273 0.479064 5.14314 -3.80634 -0.458259 1.09054 0.548586
190 1 12.925 24.1389 -0.159953 -1.55903 -2.12372 1.13416 11.8369 -3.78077 -0.478532 0.461269 0.152202
280 1 12.8739 21.3633 3.17646 1.61778 1.13426 1.57654 5.94332 -3.88651 -0.364921 0.12305 0.235227
289 1 11.3072 22.8471 1.5728 -3.96248 4.07387 -0.259648 5.43778 -3.91331 0.064368 0.0691347 0.0976717
290 1 12.8777 24.1232 3.23902 1.06046 -1.98762 3.24564 0.246369 -3.92271 -0.521093 0.144091 0.029603
192 1 1.54582 26.9795 -0.0921977 0.832332 -0.820942 0.130328 5.5913 -3.88188 -0.242217 0.21052 -0.332344
194 1 4.33343 27.1078 -0.15618 -1.61671 -3.20912 1.28134 0.260323 -3.87883 -0.129806 -0.622281 -0.620997
291 1 0.123486 25.6243 1.70392 -1.91934 -0.395923 -0.219087 0.450754 -3.84768 -0.199692 -0.138089 -0.5439
292 1 1.58125 27.1181 3.14462 0.521729 -0.104332 -0.21211 5.65489 -3.94455 0.1017 -0.578384 0.216686
293 1 3.0799 25.6086 1.54159 2.80973 1.17343 -0.298043 6.04617 -3.84055 -0.304962 -0.0539815 0.0956688
294 1 4.2495 27.1204 3.2307 -1.17778 2.9951 1.58236 5.27677 -3.89048 0.33916 0.0769702 -0.1163
196 1 7.3038 27.0489 0.00191563 3.37805 -2.98627 4.17109 5.12114 -3.84168 -0.519764 -0.106561 -0.896428
295 1 5.73558 25.636 1.51831 2.43808 0.681994 -1.51506 5.50581 -3.87848 -0.0416717 0.208021 0.157574
296 1 7.17419 27.0665 3.13327 0.309675 6.50899 -1.89168 5.80129 -3.83977 0.0390234 0.377632 0.0158728
297 1 8.56397 25.5256 1.57017 -0.134748 1.31643 -3.31811 5.66335 -3.8381 0.544273 0.309736 0.146209
209 1 11.3537 28.3011 1.64494 -0.393176 -1.47754 0.78913 11.3729 -3.74062 0.222894 0.484583 -0.779879
198 1 9.95313 27.0869 -0.225346 0.689763 -0.698924 -1.31982 5.44261 -3.78115 0.34781 -0.0815359 1.15437
200 1 13.0099 27.0067 -0.165206 5.30296 -0.270392 0.651806 5.86762 -3.79009 -0.823139 0.207927 0.323795
299 1 11.357 25.6421 1.61767 0.613569 6.18239 1.53807 6.51769 -3.72414 0.0146242 -0.101543 -0.0743049
301 1 0.190771 0.330155 4.80705 0.5675 -0.168496 -2.46061 9.39041 -3.9356 0.145859 -0.772242 0.313445
302 1 1.52998 1.64637 6.78767 -1.42736 -3.15682 0.972455 0.353394 -3.88617 -0.269133 -0.372555 -0.456365
303 1 2.87995 0.257353 4.97887 0.341516 -0.0404191 -2.60214 5.60166 -3.96777 0.128397 -0.12775 -0.207622
304 1 4.29008 1.6221 6.61047 -4.04083 -0.468429 4.02966 0.168155 -3.8249 0.0153748 0.541574 0.167806
311 1 0.149724 2.85167 4.96961 -1.74976 0.28104 0.763369 10.247 -3.80541 -0.129186 1.09406 -0.516677
313 1 2.89377 2.99568 4.84305 0.148637 -0.416692 -0.495992 5.63474 -3.81862 -0.161998 0.0627242 0.465337
305 1 5.63949 0.272746 4.97406 -2.6762 0.601797 -1.53878 5.56974 -3.76984 0.886662 -0.0575877 -0.638188
306 1 7.16827 1.7968 6.64325 -0.497955 1.38302 -0.554626 6.20326 -3.84954 -0.646397 -0.746662 0.00208089
307 1 8.54451 0.339894 5.02361 2.06573 -1.47317 -0.377265 6.1025 -3.90074 -0.438417 -0.891577 -0.385263
315 1 5.88369 2.98404 4.88069 0.746495 3.22544 0.384377 5.66195 -3.91485 -0.745592 0.584155 -0.0285669
317 1 8.5575 3.091 4.8821 0.877774 1.33708 0.284955 5.92911 -4.03959 -0.545872 -0.275143 0.0702863
208 1 9.93587 1.5992 3.28506 -2.11946 3.54369 -4.60115 5.9565 -4.00251 0.182566 0.146734 0.0158438
210 1 12.7168 1.62492 3.31676 1.93469 -2.84729 3.21644 0.368032 -3.87092 0.160732 -0.214639 -0.132448
308 1 9.85407 1.73124 6.59493 -3.32365 0.641461 0.348771 5.69708 -3.91187 0.40355 -0.463152 0.466438
309 1 11.427 0.271834 5.02127 2.261 -0.338001 1.59023 0.171781 -3.88362 -0.27981 -0.263181 -0.410164
310 1 12.8338 1.67333 6.61867 -2.12593 2.9352 -1.91821 0.183872 -3.88141 -0.0421065 -0.670744 0.0225323
319 1 11.2832 3.0542 4.97814 1.40137 -1.12676 -0.599603 0.113422 -3.94233 0.797818 0.135783 -0.142165
212 1 1.5107 4.56417 3.29196 1.71349 1.1107 -0.37813 5.77089 -3.89538 0.0379664 -0.231657 -0.363612
214 1 4.35594 4.34938 3.31222 -3.60792 0.888428 1.10906 5.25813 -3.86647 -0.306837 0.536768 -0.601954
222 1 1.54559 7.23945 3.26798 2.60978 -1.28947 -2.65909 5.7805 -3.91869 -0.379701 0.098753 -0.201627
224 1 4.45542 7.31972 3.3081 2.28078 -2.16034 3.83898 0.318146 -3.86086 -0.648963 0.374831 -0.289979
312 1 1.51633 4.46751 6.56923 6.58074 -1.87872 -2.48992 0.262737 -3.88115 0.208844 -0.332376 -0.100288
314 1 4.38482 4.47065 6.69749 1.38421 -0.500902 1.94911 6.17446 -3.78156 0.0170942 0.0832179 -0.618439
322 1 1.50912 7.24612 6.55383 2.77664 -2.04083 2.3912 0.11718 -3.86048 0.0426694 -0.247043 -0.201538
323 1 3.05231 5.91185 4.89635 -1.31866 2.39502 -0.268551 0.272248 -3.8869 -0.364325 -0.132944 0.33327
324 1 4.3708 7.29584 6.58469 1.4459 0.563605 -1.51929 0.138727 -3.90209 -0.0553592 -0.480718 -0.38832
226 1 7.22143 7.27669 3.27109 -1.92098 2.73055 -2.00716 5.96318 -3.92359 0.240036 -0.123618 0.41967
316 1 7.10763 4.57462 6.62718 2.31643 -3.52172 -0.258836 6.08752 -3.9435 -0.180331 -0.901936 0.0475756
325 1 5.76431 5.8264 4.83206 -2.43851 2.57701 -2.10025 0.289313 -3.91209 -0.027625 0.0828718 0.651323
326 1 7.19795 7.24786 6.53072 -1.71798 -0.00966545 0.572563 0.288647 -3.96634 -0.441539 0.588194 -0.330208
327 1 8.55272 5.78657 5.05652 -1.12912 -0.410511 1.0442 5.33961 -3.8912 -0.137727 0.386191 -0.748038
228 1 9.92162 7.27115 3.35922 0.0778168 -0.255412 1.79302 5.54626 -3.89682 -0.0626477 0.15507 0.0927469
321 1 14.1448 5.82456 4.93978 4.06995 0.134137 -0.309495 0.203867 -3.88817 0.266432 0.328887 -0.54074
318 1 9.98504 4.43593 6.58899 1.75132 -4.65897 3.2673 0.0926516 -3.9503 -0.278766 0.254632 0.436922
320 1 12.7757 4.48205 6.5965 1.89733 -3.11783 2.82706 0.191155 -3.87128 0.406566 -0.457997 0.0133701
328 1 10.0129 7.28399 6.45824 2.65819 -0.927283 -2.4793 4.89129 -3.87757 -0.187603 0.130209 0.384429
329 1 11.4291 5.87426 4.9207 1.9858 -1.38951 -0.786356 0.0795934 -3.91421 -0.0914943 0.0249201 -0.462834
330 1 12.8425 7.28945 6.62016 -1.97867 0.420953 -1.07444 0.100055 -3.96483 0.0459708 -0.375696 0.0581165
232 1 1.56015 10.1641 3.28635 2.12226 0.0705619 -0.681687 0.231863 -3.95114 -0.274434 -0.118826 -0.370311
332 1 1.46321 10.1244 6.65674 1.59487 2.03124 0.780371 5.86662 -3.91261 -0.103716 -0.341459 -0.135575