ITEM: TIMESTEP
7500
ITEM: NUMBER OF ATOMS
2000
ITEM: BOX BOUNDS pp pp pp
1.0838953229856951e-01 1.4221610467701321e+01
2.1677906459713903e-01 2.8443220935402643e+01
2.2185981516323677e-01 5.7098140184836325e+01
ITEM: ATOMS id type x y z vx vy vz c_csym c_peratom fx fy fz
2 1 1.62332 1.66863 1.65103 -0.282889 -3.25185 -0.636516 0.276998 -4.1125 -0.499286 -0.152424 -0.365594
4 1 4.35789 1.61575 1.58199 0.990702 -5.33602 3.45801 0.213183 -4.15302 0.199113 0.0192251 0.478506
11 1 0.115605 3.14255 0.2678 0.617832 -0.194419 3.50607 0.196795 -4.07792 -0.293157 -0.147976 -0.151571
101 1 0.126621 0.284403 3.03973 -1.57173 1.46596 2.1275 0.151233 -4.10914 -0.344389 -0.0848082 0.0389022
103 1 2.85007 0.270771 3.09676 0.287695 0.367304 -1.8153 0.235303 -4.01232 0.357997 0.0389361 -0.372572
111 1 0.168447 3.08626 3.06505 -2.2925 0.592843 0.179022 0.129455 -4.16759 -0.446562 0.0371894 0.138917
113 1 2.87763 3.13123 3.11814 -1.71434 2.42111 -1.1208 0.323271 -4.08934 0.127623 0.216147 -0.204054
13 1 2.94284 3.10367 0.240059 -0.0706192 -1.95523 0.774801 0.0709148 -4.05062 -0.143685 0.00897553 -0.219264
6 1 7.17995 1.58532 1.64457 -1.53139 -1.81767 -2.43971 0.223344 -4.11428 -0.138124 0.917592 0.0625682
17 1 8.63608 3.25517 0.288077 -1.24355 -0.0988133 -0.860341 0.804534 -4.06047 -0.514696 -1.03802 -0.234764
105 1 5.90739 0.22905 3.06644 0.812795 -1.48127 -4.16198 0.293148 -4.083 -0.931162 -0.604747 -0.279256
115 1 5.79048 3.13764 3.05233 -0.932742 0.818202 0.0439582 0.178465 -4.04815 -0.205274 -0.550212 0.143122
117 1 8.60233 3.08029 3.12921 0.475293 0.415756 -1.302 0.153981 -4.0764 -0.401316 0.365533 -0.829288
15 1 5.86915 3.09703 0.276504 -1.1078 -3.23994 -0.243916 0.285246 -4.03347 -0.272574 0.199611 -0.287804
8 1 9.98472 1.71462 1.53427 1.02028 2.64764 -1.65962 0.359278 -4.06086 -0.382497 0.252498 1.37659
9 1 11.3244 0.287262 0.317872 -0.628437 1.37052 0.162777 0.372333 -4.05179 1.1048 -0.0690046 -0.581594
10 1 12.8557 1.68831 1.5825 -0.261261 2.58464 0.684826 0.127247 -4.04573 -0.36014 0.298095 0.173118
109 1 11.3921 0.306018 3.03783 4.17545 -4.26001 3.01885 0.165055 -4.10646 -0.328199 -0.327742 -0.157484
119 1 11.4562 3.11085 2.9861 -0.877516 0.612354 1.13148 0.14661 -4.11962 -0.523401 0.0108429 0.282043
12 1 1.52356 4.6359 1.55328 1.18436 1.40208 1.05812 0.546739 -4.06556 -0.0087735 -0.493937 0.447115
14 1 4.34915 4.42365 1.73994 -0.761965 1.11821 -1.53086 0.266379 -4.10573 0.153191 0.583953 -0.467778
22 1 1.54026 7.32431 1.57936 0.529166 1.27637 -0.648244 0.229416 -4.05844 0.170718 -0.360754 1.02388
23 1 3.01689 5.92797 0.248186 4.21453 0.286138 -0.65637 0.220095 -4.06093 -0.588273 -0.313178 -0.379044
24 1 4.35552 7.36387 1.64624 0.718611 1.41969 0.425215 0.103427 -4.03628 -0.176701 0.148322 -0.0613867
121 1 0.132435 5.82793 3.05841 -2.35864 3.10392 -0.471262 0.180334 -4.04591 0.212577 0.492145 -0.300112
123 1 3.01618 5.86763 3.14916 1.00139 1.8653 -1.24788 0.249206 -4.1488 -0.494293 0.230506 -0.297854
16 1 7.14135 4.5226 1.71975 0.603539 0.154603 0.133915 0.147025 -4.06689 -0.143562 -0.461794 -0.808551
25 1 5.70759 5.92495 0.334231 -0.827089 1.1553 2.35682 0.304642 -4.1487 -0.435564 -0.992666 -0.725756
26 1 7.1412 7.16975 1.59903 -0.0337704 2.62343 0.778117 0.516626 -3.93364 0.44556 1.36285 0.776531
125 1 5.74127 5.95799 3.09969 -0.136011 -2.75282 -0.154075 0.137354 -4.20407 -0.0889191 0.210258 0.421133
127 1 8.57446 5.88387 2.97066 -1.51658 -3.67076 0.00771245 0.34022 -4.10628 0.0464447 -0.210197 0.778472
18 1 10.0587 4.47472 1.64765 2.01504 1.15568 0.108705 0.206128 -4.0568 0.166738 0.525742 0.216627
20 1 12.7939 4.54238 1.61559 -0.022531 3.00342 -1.17168 0.0570701 -4.13082 0.18295 -0.104822 0.471105
28 1 10.1169 7.35391 1.73265 1.08986 -1.21663 1.80841 0.39268 -4.02836 -0.857293 -0.173925 -0.671579
29 1 11.4127 5.98723 0.238872 1.3822 1.47477 -0.555896 0.0531682 -4.13629 -0.332862 -0.381844 -0.390464
30 1 12.8531 7.28188 1.70558 0.362699 -0.519128 0.486825 0.133287 -4.15665 0.0163354 0.65854 -0.368241
129 1 11.3642 5.90889 3.1065 -0.995542 1.01394 2.2528 0.105969 -4.11175 0.427217 -0.444357 -0.43542
32 1 1.48279 10.1923 1.58176 2.66336 -1.18469 0.933482 0.209402 -4.12532 0.226467 -0.40733 0.691984
34 1 4.32744 10.195 1.58264 -3.42019 -1.92301 1.41173 0.179392 -4.0856 -0.211939 -0.333643 0.424485
43 1 2.92107 11.628 0.243266 2.17426 0.782241 3.50485 0.110144 -4.09198 -0.341286 -0.645735 -0.716854
133 1 2.87707 8.77788 3.09027 -1.44944 0.975575 0.710255 0.0886537 -4.09652 0.410535 -0.22832 -0.0648391
141 1 0.146359 11.6297 2.98109 -2.20193 -7.04944 -1.51669 0.288732 -4.11816 0.147126 0.148963 0.275118
143 1 2.92416 11.521 3.06773 -0.572232 1.1909 1.77002 0.157266 -4.12052 -0.37619 0.122244 -0.775441
36 1 7.17897 10.1662 1.69139 0.10168 3.47717 0.174941 0.15874 -3.99933 0.440799 -0.396493 -0.168307
47 1 8.63625 11.4798 0.320469 -1.46078 2.66256 0.234251 0.269434 -4.07929 -0.450831 0.246224 -0.303236
135 1 5.71447 8.72482 3.16311 -0.880733 0.590278 -0.109653 0.274191 -4.11028 0.442202 0.297359 -0.677804
137 1 8.61908 8.74613 3.00585 -4.19951 1.4167 -2.48788 0.341431 -4.11817 -0.0625076 -0.317076 -0.0103621
145 1 5.78797 11.4174 3.07021 0.913579 -3.10787 0.676852 0.313171 -4.07634 -0.251983 0.841066 0.569894
147 1 8.63173 11.5707 3.16842 -2.52053 -2.66134 -2.016 0.177759 -4.09481 -0.303112 0.622078 -0.582232
37 1 8.64539 8.6808 0.349 -0.410704 1.96136 0.795798 0.343812 -4.14829 -0.483503 0.610204 -0.675369
41 1 14.1834 11.5242 0.316716 -1.35835 -5.95404 3.83557 0.229071 -4.06775 -0.415381 0.77823 -0.80747
131 1 14.189 8.78043 3.18309 -1.59748 2.05417 3.03081 0.36707 -4.03454 1.03412 -0.717759 -0.318601
38 1 10.1092 10.2499 1.75685 0.647054 3.02786 -2.05404 0.488348 -4.06816 -1.37664 -0.99646 0.259887
39 1 11.3428 8.78317 0.271995 2.80774 -0.622395 -1.00191 0.22271 -4.10482 0.60745 -0.30552 0.111068
40 1 12.8549 10.1114 1.77359 -1.75728 -0.634733 -0.267602 0.22634 -4.11173 -0.143624 -0.266263 -0.813569
139 1 11.4119 8.69776 3.15087 -0.425376 2.4171 -0.0430739 0.104868 -4.09817 -0.216109 0.439652 -0.0957421
149 1 11.4267 11.5446 3.15171 -0.904464 -0.906018 0.248794 0.169157 -4.07506 0.0470337 0.555667 -0.232534
49 1 11.351 11.4979 0.299396 -3.94296 -1.72452 -3.57845 0.140931 -4.05234 0.443058 0.2481 -0.926823
42 1 1.60077 12.9976 1.56593 -0.841826 -0.173751 0.753914 0.408304 -4.08852 -0.599757 0.194624 0.488862
44 1 4.30049 12.9516 1.55136 -1.17519 0.372824 -0.13007 0.102555 -4.1636 0.439939 0.228487 0.961546
52 1 1.58776 15.7356 1.78624 -0.585983 1.26946 1.71295 0.630255 -4.02669 -1.05451 -0.668451 -1.35585
54 1 4.38463 15.6552 1.64304 0.269637 0.959657 1.9614 0.259127 -4.08838 -0.664856 0.627067 0.0241308
153 1 2.9946 14.2978 3.08033 -3.03426 -0.361765 3.65674 0.162622 -4.01316 -0.167845 -0.138551 -0.0960694
46 1 7.13899 12.8477 1.61943 -0.042375 -0.703018 -2.37022 0.21832 -4.05111 -0.300053 0.544244 0.35838
56 1 7.08452 15.7726 1.56712 0.19616 0.505449 -1.21975 0.234188 -4.08784 0.159791 -0.248118 -0.100561
155 1 5.76502 14.3443 3.02571 -0.699273 2.50818 -2.71856 0.101845 -4.11538 -0.0805735 -0.292312 0.223177
157 1 8.53251 14.4644 3.1064 1.77519 1.9958 -4.01974 4.86243 -4.12075 -0.115962 -0.318369 0.280413
57 1 8.49816 14.3386 0.356812 5.27468 2.46447 0.151665 0.453993 -4.01443 0.292402 0.280895 -1.01186
51 1 14.0057 14.3518 0.222259 5.08997 3.62125 -2.07853 4.55973 -4.0219 1.84192 -0.557749 -0.0116029
151 1 14.2009 14.4155 3.08839 -4.71089 2.01634 -0.85659 0.116134 -4.03415 -0.15275 -0.156486 -0.0123997
48 1 9.93985 13.0563 1.66807 2.86016 2.34417 0.701272 0.26439 -4.10134 0.517357 -0.532132 0.265502
50 1 12.7181 12.9904 1.66548 0.559624 -1.36974 -0.820506 0.169786 -4.10124 -0.0708799 -0.26043 0.206015
58 1 9.99316 15.7186 1.65076 -3.3381 -1.51398 5.38263 0.161567 -4.09112 0.0410965 0.391675 0.268598
60 1 12.7967 15.7437 1.65617 1.53771 1.90327 -4.70531 0.108993 -4.08024 -0.594067 0.234664 0.545425
159 1 11.3491 14.3264 3.13644 -0.265735 -1.65506 -3.98071 0.148404 -4.08999 0.0102323 0.252005 -0.151044
62 1 1.43944 18.5161 1.69024 0.272627 0.831543 -0.200207 0.114385 -4.05357 -0.00360226 0.211411 -0.342166
64 1 4.38586 18.6552 1.69424 1.24428 1.0664 2.86252 0.398466 -4.03602 -0.170866 -1.13593 -0.199766
163 1 2.94245 17.1558 2.97981 0.341627 2.40032 0.506019 0.365605 -4.04397 0.794032 0.140929 0.227435
171 1 0.141802 19.9783 3.1721 -0.0590841 -1.37942 4.27312 0.160679 -4.13622 -0.347898 0.183545 -0.845424
173 1 2.89555 19.9823 3.05928 0.785649 -1.23368 2.3689 0.141143 -4.13257 -0.645915 -0.618695 0.681674
66 1 7.24355 18.6165 1.6935 2.75597 -4.35103 0.905848 0.352847 -4.18524 -0.30905 -0.11332 0.0961723
67 1 8.57677 17.1461 0.244953 -4.30079 -3.56988 1.31798 0.049502 -4.15457 -0.372615 0.0467163 0.28424
165 1 5.78304 17.093 3.01707 1.97311 1.99329 -0.167527 0.23165 -4.06477 -0.241247 0.325568 0.059106
167 1 8.56005 17.078 2.96625 1.63712 1.01306 -0.622391 0.514881 -4.08178 -0.0909662 -0.265126 1.00098
175 1 5.70632 20.007 3.08399 -3.42076 -2.85137 2.01629 0.129521 -4.07434 0.656524 0.452377 -0.577073
177 1 8.58858 20.043 3.27976 -1.05917 0.80188 -0.731301 0.892584 -3.99639 -0.201924 -0.807164 -1.27737
75 1 5.71713 19.9361 0.230851 -4.53949 -0.9021 2.29786 0.123031 -4.08895 -0.377023 0.515783 -0.929154
65 1 5.67248 17.193 0.26716 -1.31158 -3.63153 -0.620776 0.320367 -4.12391 0.400949 -0.262369 -0.0210077
161 1 14.1852 17.2046 3.17708 -8.06951 -0.86164 0.0732044 0.201912 -4.14862 -0.0764646 -0.311135 -0.510694
68 1 9.83757 18.5862 1.7186 1.01621 0.95189 3.77626 0.488752 -4.13268 0.957986 0.375879 -0.138404
70 1 12.7582 18.5098 1.68006 -2.75978 -0.241021 0.901339 0.152567 -4.03605 0.484698 0.50784 -0.697553
169 1 11.4357 17.1907 3.07395 -0.050047 0.778513 1.36961 0.106526 -4.08882 -0.369905 -0.145137 0.411523
179 1 11.4548 19.9395 3.1553 0.478562 4.61523 -0.247094 0.239577 -4.11268 -0.378197 0.243975 -0.332905
69 1 11.3235 17.1806 0.322563 2.51938 -0.439877 2.89062 0.198614 -4.11121 0.465009 -0.353009 -0.477385
71 1 14.189 20.001 0.32891 -3.02828 1.71166 0.793185 0.285734 -3.98255 -0.211941 -0.633508 -0.275939
61 1 14.2026 17.0274 0.290526 -2.79754 0.110739 5.17862 0.279907 -4.04607 0.0900616 0.450758 -0.284551
72 1 1.54936 21.3951 1.60134 2.3338 -3.4761 -2.56089 0.167605 -4.14847 -0.532996 -0.063846 0.179704
74 1 4.24289 21.3195 1.72467 -0.775897 2.76848 -0.309503 0.340158 -4.16317 0.741659 0.132725 -0.508837
82 1 1.5098 24.075 1.53239 -0.197856 1.54937 -4.05427 0.277588 -4.13805 -0.029295 0.54975 0.0346358
84 1 4.24694 24.1216 1.6717 1.75243 2.83472 -4.12876 0.379224 -4.02058 0.994495 0.654643 -0.615115
181 1 0.128659 22.763 3.02502 -3.03311 -1.67311 -0.629939 0.0451417 -4.08686 0.137486 0.0354223 -0.308934
183 1 2.89382 22.7594 2.98471 0.572942 -1.11899 -0.365379 0.142541 -4.11769 -0.385822 0.305306 0.963356
76 1 7.14056 21.2635 1.6468 -0.691281 0.193514 1.05787 0.357302 -4.02673 -0.110908 1.09709 -0.0479064
86 1 7.25436 24.2668 1.6493 -2.43118 3.29649 -1.15762 0.393397 -3.9738 -0.0433197 -0.764804 -0.509071
185 1 5.72509 22.8979 2.98952 3.67767 -2.14848 -3.35625 0.456728 -4.10134 0.407248 -0.97812 0.3682
187 1 8.47118 22.692 3.15212 -0.732136 -0.532565 -1.73565 0.549175 -4.10008 0.421502 -0.000766193 -0.992988
78 1 9.92402 21.3232 1.59414 -2.14879 -1.2859 1.20999 0.205245 -4.10581 0.209909 0.221339 0.533294
80 1 12.7264 21.3466 1.66526 -2.02506 0.894117 1.33119 0.0625196 -4.05 1.20074 -0.492728 -0.312126
88 1 9.99398 24.1702 1.68797 -1.34963 2.3224 -3.76156 0.187158 -4.13385 -0.372656 0.324563 -0.368464
90 1 12.8226 24.1983 1.56276 -3.32555 -1.34099 0.789537 0.171875 -4.08465 -0.604629 0.161379 1.07517
189 1 11.404 22.6532 3.00787 1.1462 2.87937 3.03823 0.278559 -4.01363 0.171261 0.790492 0.505713
92 1 1.49183 27.0716 1.63667 -1.55268 0.823337 -0.21304 0.0676053 -4.09071 -0.289866 -0.241731 0.26056
93 1 2.95679 25.6072 0.240477 -2.98218 -1.24306 2.03838 0.156796 -4.12349 0.0982899 0.540401 -0.13558
94 1 4.31233 27.0701 1.78647 -2.42482 -0.468398 -1.32983 0.611098 -4.02227 -0.189277 -0.0933596 -0.602306
193 1 2.87926 25.4829 2.99875 -1.0862 0.475835 1.41936 0.394752 -4.03893 0.239524 0.564712 0.495117
5 1 5.72241 28.2956 0.298271 2.69086 -0.906142 0.0342517 0.550003 -4.07625 0.180853 0.546594 -0.559969
107 1 8.62684 28.3911 3.10038 1.62718 -2.83475 -3.52836 0.285426 -4.11295 -0.742848 1.55239 -0.611596
96 1 7.19496 27.0059 1.63877 3.8854 -2.09663 -3.2721 0.0359533 -4.11348 -0.552455 -0.00458083 0.243659
195 1 5.7699 25.6353 3.01299 -1.7019 -1.17403 1.74296 0.118364 -4.09906 -0.278189 0.138205 0.523141
197 1 8.65402 25.6862 3.06304 -0.592902 -0.620959 0.00800132 0.309932 -4.11046 -0.814264 -0.65951 0.513061
7 1 8.51249 28.4072 0.318263 0.305773 -1.36188 3.04787 0.31013 -4.05405 0.254789 0.191152 -1.2595
191 1 14.1954 25.5315 3.02173 -0.0885336 -4.4938 -0.48509 0.20552 -4.00888 0.351652 0.211201 -0.258542
98 1 9.85719 27.0277 1.59683 2.60699 4.64685 0.62246 0.380723 -4.14134 0.850452 -0.203378 -0.0451213
100 1 12.8111 27.1397 1.64885 0.688756 2.41483 -3.36628 0.108722 -4.08617 0.214007 -0.34831 0.156154
199 1 11.3947 25.7747 3.06454 -1.77748 -0.753815 0.440887 0.574143 -4.04657 0.502758 -0.946696 -0.00204937
99 1 11.3966 25.6653 0.280943 -3.11862 -0.640777 0.494149 0.13379 -4.09137 0.100392 0.0104336 -0.0436987
102 1 1.43258 1.58866 4.51287 7.38627 -3.29026 1.48818 0.289634 -4.08675 0.168694 0.239368 -0.188111
104 1 4.40471 1.70471 4.42782 -2.62904 -0.431866 -2.50035 0.220452 -4.10903 -1.01362 0.286855 -0.440724
202 1 1.64591 1.56967 7.22282 2.02744 3.5456 -1.59179 0.578851 -4.05711 -1.33641 1.36177 0.441619
203 1 2.94499 0.259696 5.86925 -1.3304 -3.48688 0.0854903 0.125356 -4.1056 0.313027 -0.0410931 -0.879351
204 1 4.18458 1.68524 7.29934 -0.935437 1.48785 2.63114 4.38353 -4.07907 1.32744 -0.871406 -0.366399
213 1 2.88677 3.08084 5.83697 -2.28947 -0.845795 -1.07431 0.332362 -4.1284 0.0781296 0.0413214 0.0551337
106 1 7.15632 1.63052 4.41362 0.736671 -1.16949 0.0239501 0.22166 -4.14649 0.834347 0.376159 0.870805
205 1 5.64874 0.299036 5.74255 2.33469 0.995414 0.291621 0.52559 -4.01835 1.30306 -0.788967 1.39654
206 1 7.2548 1.68985 7.26305 -1.46106 -1.55409 1.7364 0.34015 -4.04483 -0.49108 -1.05899 -0.00823272
207 1 8.58474 0.236208 5.94071 1.31666 3.04051 1.49325 0.137658 -4.06922 0.461546 0.512122 -0.891594
215 1 5.78167 2.95842 5.99005 -1.49422 -2.50707 3.51511 0.491832 -4.05997 -0.408669 0.104995 -0.851092
217 1 8.60442 3.0921 5.89107 -1.80041 2.92479 -5.24384 0.119775 -4.09176 -0.205946 0.034366 0.331084
201 1 14.2143 0.277593 5.94413 -0.76465 1.66164 -3.30675 0.303869 -4.11769 -0.0168082 -0.0947461 -0.142923
211 1 14.1953 3.09372 5.99487 0.131749 -3.47244 0.658656 0.242322 -4.11248 -0.0767505 -0.536503 -0.371865
108 1 9.98023 1.81548 4.53319 1.78008 -0.0382443 0.481447 0.560988 -4.02123 0.640919 -1.41783 0.0999979
110 1 12.7567 1.63776 4.44845 0.143622 0.261967 0.471904 0.154045 -4.01915 0.360266 0.421419 0.787005
208 1 9.93587 1.5992 7.34674 -2.11946 3.54369 -4.60115 0.124036 -4.19183 0.630172 0.466842 0.0642449
210 1 12.7168 1.62492 7.37337 1.93469 -2.84729 3.21644 0.348344 -4.05743 0.0701969 0.294887 -0.500019
219 1 11.4042 3.08595 5.9144 2.96876 -3.6 -0.306264 0.064609 -4.05532 0.0198206 -0.359549 0.205866
112 1 1.47335 4.44722 4.59149 -2.08488 5.53109 1.88305 0.219458 -4.03764 0.209002 0.668014 -0.616161
114 1 4.45714 4.53943 4.60315 0.408107 -1.46821 1.68028 0.417675 -4.10035 -0.112726 -0.66725 -0.303843
122 1 1.5387 7.19477 4.56064 -2.178 2.10286 -1.52883 0.262444 -4.01427 -0.323138 0.220701 -0.52274
124 1 4.30599 7.3213 4.53935 -1.70609 -0.894295 0.386355 0.154968 -3.99321 0.271902 0.240876 -0.00901193
212 1 1.5107 4.56417 7.35254 1.71349 1.1107 -0.37813 0.376688 -4.11311 0.258105 -0.405843 0.223101
214 1 4.35594 4.34938 7.36955 -3.60792 0.888428 1.10906 4.61801 -4.11624 0.0597388 0.547186 -0.843867
222 1 1.54559 7.23945 7.3324 2.60978 -1.28947 -2.65909 0.154078 -4.12307 -0.564178 0.0161529 -0.1555
223 1 3.00176 5.86832 5.95146 -2.9209 -3.41332 -1.19244 0.119169 -4.12601 0.132597 -0.166608 -0.250978
224 1 4.45542 7.31972 7.3661 2.28078 -2.16034 3.83898 0.286326 -4.06197 -0.98767 0.187178 -0.639512
116 1 7.08446 4.43511 4.53974 -0.717838 -0.661302 1.69127 0.352159 -4.1198 0.885888 0.304334 -0.346314
126 1 7.33953 7.39572 4.52 1.37971 -3.46356 0.697126 0.479158 -4.01707 -0.51529 -0.212651 -0.0829592
216 1 7.15048 4.45322 7.22415 0.663868 1.20315 1.59813 0.310984 -4.15048 0.0327614 0.768184 0.25677
225 1 5.7941 6.05956 5.87162 0.299468 -1.75276 -1.18853 0.608797 -4.06258 -0.320899 -0.471458 0.0604168
226 1 7.22143 7.27669 7.33501 -1.92098 2.73055 -2.00716 0.108752 -4.15504 0.328749 0.089992 -0.0496599
227 1 8.61587 5.8789 5.87779 -0.532809 -0.371899 0.126652 0.124548 -4.05671 -0.0211103 0.189938 -0.11267
221 1 14.1524 5.86373 5.96465 0.796103 -1.93786 -0.0692733 0.121083 -4.0835 0.330315 0.167506 -0.261718
118 1 10.0291 4.4796 4.50503 -2.00022 0.251406 -1.34662 0.0962637 -4.14327 -0.372998 0.234638 -0.196782
120 1 12.7727 4.51546 4.44516 -2.93314 -0.0391201 0.674702 0.103271 -4.13736 0.167253 -0.203383 0.443907
128 1 10.0124 7.32217 4.45941 -2.7644 2.28321 3.1472 0.117669 -4.12366 -0.597571 -0.0792396 0.387716
130 1 12.7448 7.26336 4.46495 -1.8326 -3.86476 -3.53257 0.151545 -4.12657 0.88037 -0.270017 0.451289
218 1 9.92391 4.44006 7.32955 2.54663 2.02038 1.45237 0.0867621 -4.13579 0.259913 0.335455 -0.0364745
220 1 12.7806 4.44772 7.32186 -0.879614 -1.25736 1.20844 0.0610866 -4.02746 -0.143428 0.135734 0.115806
228 1 9.92162 7.27115 7.40903 0.0778168 -0.255412 1.79302 0.247221 -4.1108 0.120851 0.157512 -0.0755615
229 1 11.2652 5.91426 5.94571 0.58398 1.74186 -1.1864 0.294769 -4.10869 1.12208 0.133605 0.120898
230 1 12.8446 7.35538 7.25174 2.31232 0.678649 1.21522 0.268276 -4.0781 -0.691849 -1.09647 -0.137608
132 1 1.49806 10.2454 4.4277 0.926583 1.77752 2.20689 0.195501 -4.04339 -0.0399248 -0.503576 0.353088
134 1 4.33421 10.2257 4.55616 -1.95039 -2.01599 -1.69927 0.267406 -4.05853 0.265961 -0.567227 -0.212286
232 1 1.56015 10.1641 7.34782 2.12226 0.0705619 -0.681687 0.200671 -4.11971 -0.203219 0.0784871 -0.601521
233 1 2.86938 8.7146 5.96707 -0.683116 0.194601 5.31636 0.141787 -4.09187 0.626289 -0.0875718 -0.267935
234 1 4.30212 10.2221 7.32762 -0.621179 0.157015 -0.123602 5.07144 -4.11873 0.656499 -0.243916 0.321129
241 1 0.149986 11.5192 5.87295 -2.41095 0.904273 -0.0212207 0.0890825 -4.08257 -0.221277 -0.0443793 0.123367
243 1 2.87755 11.525 5.82349 -0.234391 0.744033 0.670144 0.22681 -4.05017 -0.406086 -0.0985668 0.279545
136 1 7.34978 10.1327 4.53495 0.629619 0.98562 1.20116 0.357362 -4.10096 -0.805617 0.121721 -0.332076
235 1 5.87066 8.81598 5.84595 0.465343 -1.43871 1.4062 0.360169 -4.09958 -0.676725 -0.859043 0.408636
236 1 7.13391 10.1574 7.3535 2.36863 -0.429749 -0.449581 0.253155 -4.13405 -0.184937 0.307564 0.141148
237 1 8.63235 8.75913 6.05511 2.56455 0.935182 0.542097 0.331521 -4.13856 0.0889157 -0.295198 -0.815288
245 1 5.87987 11.5851 5.90658 0.240801 -0.541356 -0.243051 0.421685 -4.08545 -0.256646 0.0601849 0.000607248
247 1 8.6244 11.498 6.00907 0.432483 -3.51449 2.45946 0.184882 -4.15018 -0.375317 0.776432 -0.0348397
231 1 14.2058 8.74973 5.87199 -0.187028 1.52542 1.17023 0.0844665 -4.14966 0.552725 0.0581143 0.15184
138 1 9.92992 10.142 4.47205 -1.64946 -2.47072 4.24093 0.254762 -4.15898 1.20722 -0.114417 0.829279
140 1 12.8378 10.2224 4.47972 -3.06779 0.590986 0.953237 0.184231 -4.15278 -0.267831 -0.52066 0.290616
238 1 10.0462 10.0877 7.35285 4.00462 1.03455 -0.403308 0.136389 -4.05627 0.381108 0.412284 0.244335
239 1 11.364 8.67474 5.87891 1.07823 -1.10089 5.00007 0.094146 -4.12078 0.485903 0.321275 -0.0477313
240 1 12.788 10.0949 7.18598 0.473313 1.12475 -2.36237 0.344344 -4.0302 0.343224 0.662117 1.3701
249 1 11.3994 11.5636 5.99894 0.00818624 4.09037 -1.73351 0.228881 -4.10087 -0.364628 0.0458599 -0.109618
142 1 1.52181 13.0509 4.57634 -1.28477 -4.17543 2.9049 0.329751 -4.15722 0.206272 -0.335876 -0.437569
144 1 4.29805 12.8216 4.41796 1.81958 -2.20134 0.0142737 0.392901 -4.09593 0.858227 0.67123 0.768283
152 1 1.51339 15.8576 4.55355 -0.669006 2.84052 -0.820189 4.99043 -4.18704 0.335424 -0.521702 -0.696336
154 1 4.25725 15.7179 4.47231 2.46855 -1.35996 -1.82568 0.301607 -4.08685 0.969451 0.653899 -0.0158347
242 1 1.53992 12.9165 7.29849 0.280113 3.4737 -1.1283 0.111933 -4.17918 0.368263 0.0289686 -0.0744043
244 1 4.24982 12.7782 7.32386 2.14938 -0.0921022 -0.749942 4.96956 -4.11498 0.114725 0.882931 -0.538833
251 1 0.128475 14.4623 5.96686 2.68999 -0.1114 0.508103 0.215861 -4.09302 -0.492893 -0.492287 -0.0358874
252 1 1.63436 15.7834 7.21505 -3.12021 0.366244 0.726554 0.430811 -4.03785 -0.0205947 -0.211834 0.572427
253 1 3.02926 14.3678 5.94283 0.643288 -2.70259 -2.00417 0.343978 -4.04437 -0.32895 -0.105902 -0.429168
254 1 4.32401 15.7314 7.41311 -3.29084 -1.84392 -1.68306 0.252281 -4.04258 -0.0488112 0.2242 -0.343481
146 1 7.13468 12.9886 4.48599 1.04428 0.1527 -2.62964 0.130441 -3.96313 0.370378 -0.175603 0.232547
156 1 7.1141 15.8395 4.51165 -5.45427 -4.00032 2.42238 0.282135 -4.05884 0.30963 -0.272628 0.00331351
246 1 7.17912 12.9922 7.36639 0.991656 -1.68864 -0.448699 0.132015 -4.04881 0.756887 -0.560085 -0.308607
255 1 5.79332 14.3612 5.86386 0.949383 2.2935 -3.25327 0.171182 -4.15192 -1.05178 0.070948 0.198171
256 1 7.19239 15.8423 7.23566 -0.861153 0.781607 -0.146585 0.354078 -4.05349 0.67067 -0.760918 0.653637
257 1 8.60857 14.4287 5.9585 -2.00567 3.54744 2.76289 0.0707351 -4.10933 -0.20617 -0.6137 -0.698109
148 1 10.0789 12.8625 4.57871 2.53119 -0.204599 1.59625 0.29611 -4.05304 -0.693034 1.05692 -0.301818
150 1 12.8144 12.9078 4.54645 0.842405 -1.04171 -0.584461 0.15132 -4.14994 0.736908 0.435828 -0.218046
158 1 10.0599 15.8093 4.56249 1.95172 -4.28031 -2.67566 0.242588 -4.07168 0.0994743 -0.405023 -0.343104
160 1 12.7974 15.8078 4.46777 2.05154 2.79304 -0.0709358 0.176586 -4.10851 0.0427203 -0.550006 0.278546
248 1 10.001 13.0598 7.37112 1.15591 3.93167 -3.97146 0.323706 -4.04799 0.433555 0.105364 -0.137611
250 1 12.9049 12.9601 7.27874 1.45982 -1.9964 -1.75047 0.242172 -4.1097 -0.243913 -0.29792 0.354276
258 1 10.0849 15.781 7.3349 3.15439 -2.57917 -3.22034 0.181644 -4.13233 -0.407505 -0.837016 0.548934
259 1 11.5154 14.2983 5.9051 2.36546 0.76793 -0.871017 0.264184 -4.10502 -0.513769 0.64998 0.538868
260 1 12.7221 15.7462 7.36128 1.07372 0.97037 -2.70378 0.521169 -4.0219 0.757467 -0.173021 0.193413
162 1 1.61205 18.4318 4.49814 0.103087 0.473685 0.329909 0.465082 -4.09769 0.0730169 0.719188 -0.0389383
164 1 4.41893 18.6151 4.39014 -0.211573 3.22505 -5.20284 0.324027 -4.06286 -0.574578 -0.945788 0.685046
262 1 1.64124 18.6991 7.31312 -1.57751 0.894061 -4.43727 0.340763 -4.13151 -0.890491 -0.724481 -0.137403
263 1 3.02324 17.1738 5.89247 -2.37006 -0.133771 0.32695 0.250544 -4.11012 0.0857677 0.237925 0.171871
264 1 4.25569 18.5351 7.44988 2.99979 1.41468 -0.253245 0.4558 -4.0605 0.745495 0.459224 -0.390461
271 1 0.239882 19.931 5.80568 -2.9132 -1.24747 -1.34561 0.567808 -4.06134 -0.00711628 0.305719 0.642108
273 1 3.06119 20.0027 5.90769 0.40391 -0.0741893 3.19324 0.348713 -4.12575 -0.533345 0.290914 -0.136968
166 1 7.16241 18.5363 4.48082 0.698547 0.150344 -2.49931 0.159666 -4.19127 -0.262964 -0.115162 -0.124018
265 1 5.71847 17.1429 6.02054 -1.6126 -0.82668 -3.54668 0.391316 -4.11577 -0.941034 0.202941 -0.935602
266 1 7.25348 18.553 7.23684 1.95445 3.37989 -0.145865 0.519156 -4.042 -0.66365 0.193864 0.263089
267 1 8.63962 17.1234 5.83702 1.62128 1.24999 -1.44411 0.248887 -4.06927 -0.389553 0.306026 0.574613
275 1 5.66392 19.9514 5.91363 0.0670137 -1.38317 -3.87798 0.291493 -4.11124 0.199318 0.276967 0.305442
277 1 8.52362 20.0544 5.90352 0.898333 -0.0775842 -0.479706 0.246301 -4.13672 0.824778 0.0667387 0.550822
261 1 14.1769 17.1487 5.97993 3.22524 -0.724689 1.23685 0.346008 -4.13483 0.384684 0.112253 0.137161
168 1 9.9888 18.5753 4.52121 -3.61858 0.233632 -1.83299 0.186453 -4.09216 -0.337714 -0.268199 -0.126648
170 1 12.8038 18.6463 4.62114 0.900172 4.64776 -2.52583 0.305797 -4.09916 -0.210479 -0.369547 -0.591871
268 1 9.90461 18.5053 7.42585 4.57801 -0.241298 0.328247 0.283529 -4.06548 0.368656 0.238638 -0.474063
269 1 11.4148 17.1891 6.07978 1.22914 3.37173 -1.05524 0.356202 -4.06303 0.250364 0.659657 -1.30027
270 1 12.909 18.7314 7.31808 -1.75346 -1.91228 -0.862528 0.519268 -4.08619 -0.548321 -0.336861 0.681231
279 1 11.3598 20.0486 5.8829 2.0114 -4.45816 0.994583 0.2466 -4.066 -0.382361 -0.36336 0.676886
172 1 1.47279 21.4257 4.52414 2.33301 -0.225112 2.95214 0.261768 -4.10386 0.632656 0.0271612 -0.196454
174 1 4.32705 21.4567 4.37972 -1.27528 -0.710527 -1.51037 0.254246 -4.10243 -0.0188819 0.154854 0.156501
182 1 1.5749 24.1646 4.47929 -0.784188 -3.79054 -2.16947 0.0639822 -4.16685 -0.347043 0.279315 0.0737063
184 1 4.3073 24.238 4.43908 -0.587332 0.565944 -1.32797 0.141206 -4.09064 0.0688417 -0.333495 -0.0176142
272 1 1.50093 21.4332 7.24233 -1.3891 0.701157 2.48604 0.345393 -4.13048 0.656773 -0.908867 1.29161
274 1 4.4257 21.4489 7.39464 2.59471 -0.91757 -0.537123 0.248541 -4.03991 -0.00569235 -0.260629 -0.769116
281 1 0.183488 22.7914 5.964 -2.74019 0.616667 0.622568 0.141515 -4.00882 -0.47965 0.863759 -0.850779
282 1 1.52472 24.1909 7.40211 -1.23117 0.365724 -0.651941 0.152816 -4.11848 0.981214 0.189948 -1.11293
283 1 2.92311 22.8102 5.98075 1.18139 2.06881 4.32688 0.159306 -4.06305 0.918855 0.260252 -0.452259
284 1 4.42474 24.2671 7.37156 -2.88227 1.45219 3.65201 0.153623 -4.05493 0.305554 -0.64547 -0.547984
176 1 7.06694 21.3141 4.54364 -3.95137 -1.5893 -1.01736 0.382783 -4.06238 0.412666 0.104042 -0.796985
186 1 7.17879 24.1447 4.39234 2.78581 2.06017 1.88695 0.181506 -4.01272 -0.270638 0.699307 0.231483
276 1 7.10716 21.4372 7.38434 2.60993 -1.18025 -2.38511 0.230467 -4.07581 0.32351 -0.179562 -0.46232
285 1 5.85589 22.7635 5.78655 1.31531 1.02106 -0.50399 0.50832 -4.04036 -1.4581 1.47625 1.38426
286 1 7.16944 24.2408 7.36588 1.08031 -1.08147 0.839848 0.256383 -4.06735 -0.436764 -0.653132 -0.299521
287 1 8.6565 22.7436 5.82973 2.42 3.87829 -0.705154 0.31811 -4.23476 -0.540537 0.393874 0.910527
178 1 9.99102 21.4199 4.44352 -1.13098 -1.50552 3.15931 0.227153 -4.06985 0.6454 0.163787 0.25024
180 1 12.8404 21.4228 4.56794 -0.471497 0.0061306 0.269058 0.273384 -4.20891 0.192988 0.448501 -0.113436
188 1 10.0407 24.0693 4.34409 -1.30348 -2.27273 0.479064 0.774248 -3.9876 0.099635 1.28535 0.0738941
190 1 12.925 24.1389 4.45316 -1.55903 -2.12372 1.13416 0.396306 -4.04216 -0.972813 0.162599 0.105135
278 1 9.94955 21.4304 7.43228 1.38589 -0.978514 1.96516 0.295312 -4.00189 -0.0960196 -1.1442 -0.813082
280 1 12.8739 21.3633 7.25553 1.61778 1.13426 1.57654 0.276802 -4.17741 -0.357704 0.0969033 0.480977
288 1 10.0194 24.1956 7.41402 2.68269 2.22443 1.78439 0.355499 -4.0238 -0.495468 0.0270935 -0.13824
289 1 11.3072 22.8471 5.90856 -3.96248 4.07387 -0.259648 0.479111 -4.12795 0.322055 -0.510837 0.381293
290 1 12.8777 24.1232 7.30807 1.06046 -1.98762 3.24564 0.232882 -4.13027 -0.487421 0.615783 0.102583
192 1 1.54582 26.9795 4.51007 0.832332 -0.820942 0.130328 0.141317 -4.20106 -0.442238 0.223901 0.00237702
194 1 4.33343 27.1078 4.45633 -1.61671 -3.20912 1.28134 0.246217 -4.09151 -0.0709744 -0.657704 -0.838794
291 1 0.123486 25.6243 6.01869 -1.91934 -0.395923 -0.219087 0.348152 -4.02218 0.191132 -0.354957 -0.669823
292 1 1.58125 27.1181 7.22878 0.521729 -0.104332 -0.21211 0.245763 -4.16976 -0.224364 -0.540557 0.411352
293 1 3.0799 25.6086 5.88234 2.80973 1.17343 -0.298043 0.376432 -4.03151 -0.730089 0.140768 0.194955
294 1 4.2495 27.1204 7.30108 -1.17778 2.9951 1.58236 0.247702 -4.0876 0.693339 -0.39089 -0.0806403
196 1 7.3038 27.0489 4.58912 3.37805 -2.98627 4.17109 0.544904 -4.04339 -1.32244 -0.0994833 -1.01855
295 1 5.73558 25.636 5.86279 2.43808 0.681994 -1.51506 0.148261 -4.14123 0.542525 0.138703 0.150476
296 1 7.17419 27.0665 7.21925 0.309675 6.50899 -1.89168 0.230251 -3.99001 0.320979 0.956721 0.0730437
297 1 8.56397 25.5256 5.90635 -0.134748 1.31643 -3.31811 0.333646 -4.1535 1.20518 0.178813 -0.110541
209 1 11.3537 28.3011 5.96915 -0.393176 -1.47754 0.78913 0.763349 -4.01313 0.685566 0.796383 -1.03133
198 1 9.95313 27.0869 4.39824 0.689763 -0.698924 -1.31982 0.279776 -3.91797 0.559117 -0.609466 1.66699
200 1 13.0099 27.0067 4.44875 5.30296 -0.270392 0.651806 0.919619 -4.02331 -1.00598 0.207404 0.270229
298 1 9.9521 27.1594 7.37406 1.28797 -2.74568 -4.13594 0.322309 -4.05943 -0.956827 -1.1671 0.637006
299 1 11.357 25.6421 5.94624 0.613569 6.18239 1.53807 0.31543 -4.07503 0.674456 -0.244055 -0.684616
300 1 12.9347 27.0657 7.3668 -0.577292 -1.28953 -3.83829 0.290303 -4.10045 -0.860701 0.182426 0.205118
301 1 0.190771 0.330155 8.62511 0.5675 -0.168496 -2.46061 4.60844 -4.13724 0.119845 -0.260855 0.242596
302 1 1.52998 1.64637 10.2887 -1.42736 -3.15682 0.972455 0.262617 -4.09313 -0.135078 -0.407983 -0.526866
303 1 2.87995 0.257353 8.76943 0.341516 -0.0404191 -2.60214 0.177134 -4.11899 -0.137658 -0.377546 0.432574
304 1 4.29008 1.6221 10.1399 -4.04083 -0.468429 4.02966 0.146005 -4.07417 0.36075 0.498231 0.35917
311 1 0.149724 2.85167 8.76165 -1.74976 0.28104 0.763369 4.88603 -4.06517 -0.0713005 1.65774 -0.897794
313 1 2.89377 2.99568 8.65535 0.148637 -0.416692 -0.495992 0.32121 -4.0242 -0.281214 1.02736 1.48501
403 1 2.9679 0.297361 11.6317 0.394335 0.406084 2.23505 0.170381 -4.1048 -0.0804842 -0.536444 -0.0016847
411 1 0.156785 3.04543 11.5892 0.660313 -0.658618 -1.38298 0.130681 -4.13426 -0.438159 0.372464 0.00493069
413 1 2.87494 3.0559 11.6925 -3.05234 -3.9865 -0.430171 0.30522 -4.14506 0.809316 0.443589 -0.558237
305 1 5.63949 0.272746 8.76539 -2.6762 0.601797 -1.53878 0.26781 -4.04922 1.02543 0.0385919 -0.513461
306 1 7.16827 1.7968 10.1674 -0.497955 1.38302 -0.554626 0.42144 -3.95029 -0.550496 -1.45079 0.57712
307 1 8.54451 0.339894 8.80701 2.06573 -1.47317 -0.377265 0.303118 -4.11679 -0.408235 -1.00243 0.143836
315 1 5.88369 2.98404 8.68696 0.746495 3.22544 0.384377 0.616791 -4.04405 -1.07591 0.429726 0.132477
317 1 8.5575 3.091 8.68815 0.877774 1.33708 0.284955 0.0703904 -4.21603 -0.614403 0.210644 0.12673