ITEM: TIMESTEP
116000
ITEM: NUMBER OF ATOMS
2000
ITEM: BOX BOUNDS pp pp pp
1.0838953229856951e-01 1.4221610467701321e+01
2.1677906459713903e-01 2.8443220935402643e+01
-2.8407091278191605e+00 6.0160709127818720e+01
ITEM: ATOMS id type x y z vx vy vz c_csym c_peratom fx fy fz
2 1 1.62332 1.66863 -1.25763 -0.282889 -3.25185 -0.636516 0.278962 -4.00003 -0.158542 -0.221703 -0.354007
4 1 4.35789 1.61575 -1.3341 0.990702 -5.33602 3.45801 0.243278 -4.00548 0.32276 -0.0356531 0.226213
11 1 0.115605 3.14255 -2.78982 0.617832 -0.194419 3.50607 0.234674 -3.93253 -0.367391 -0.3291 -0.395346
101 1 0.126621 0.284403 0.280627 -1.57173 1.46596 2.1275 0.15291 -4.02798 -0.0724546 -0.0900003 -0.153378
103 1 2.85007 0.270771 0.343795 0.287695 0.367304 -1.8153 0.245644 -3.89517 0.340857 0.103184 0.0336124
111 1 0.168447 3.08626 0.308667 -2.2925 0.592843 0.179022 0.133894 -4.00255 -0.264064 -0.138033 -0.411659
113 1 2.87763 3.13123 0.36748 -1.71434 2.42111 -1.1208 5.78872 -3.96313 0.139094 -0.146234 -0.090331
13 1 2.94284 3.10367 -2.82055 -0.0706192 -1.95523 0.774801 0.0748717 -3.9177 -0.165002 0.153768 -0.220973
6 1 7.17995 1.58532 -1.26479 -1.53139 -1.81767 -2.43971 0.231915 -3.97944 0.283469 0.392629 0.109559
17 1 8.63608 3.25517 -2.76736 -1.24355 -0.0988133 -0.860341 5.19469 -3.9733 -0.31346 -0.665346 -0.168408
105 1 5.90739 0.22905 0.310206 0.812795 -1.48127 -4.16198 0.295735 -3.98 -0.376781 0.0204136 -0.129376
115 1 5.79048 3.13764 0.294584 -0.932742 0.818202 0.0439582 0.184137 -3.95617 -0.00688188 -0.358131 0.260195
117 1 8.60233 3.08029 0.379745 0.475293 0.415756 -1.302 0.173219 -3.9491 -0.220388 -0.00996271 -0.89611
15 1 5.86915 3.09703 -2.78018 -1.1078 -3.23994 -0.243916 0.300191 -3.89681 -0.376488 0.439626 -0.432358
8 1 9.98472 1.71462 -1.38696 1.02028 2.64764 -1.65962 0.426824 -3.96029 -0.0240924 -0.455936 0.579167
9 1 11.3244 0.287262 -2.73436 -0.628437 1.37052 0.162777 0.41997 -3.95558 1.02756 -0.0178978 -0.162209
10 1 12.8557 1.68831 -1.33354 -0.261261 2.58464 0.684826 0.142959 -3.9365 -0.192794 0.397648 0.0832322
109 1 11.3921 0.306018 0.278515 4.17545 -4.26001 3.01885 0.171826 -3.95991 -0.176856 -0.446523 -0.27679
119 1 11.4562 3.11085 0.221215 -0.877516 0.612354 1.13148 0.160203 -4.00461 -0.506016 -0.179811 -0.0140749
12 1 1.52356 4.6359 -1.36591 1.18436 1.40208 1.05812 0.59543 -3.94968 -0.100865 -0.416032 0.208243
14 1 4.34915 4.42365 -1.15914 -0.761965 1.11821 -1.53086 0.278977 -4.01125 0.380407 0.449498 -0.327935
22 1 1.54026 7.32431 -1.33701 0.529166 1.27637 -0.648244 5.80202 -3.92922 -0.0541435 0.0266561 0.327747
23 1 3.01689 5.92797 -2.81155 4.21453 0.286138 -0.65637 0.226281 -3.93064 -0.517302 0.0950118 -0.14686
24 1 4.35552 7.36387 -1.26293 0.718611 1.41969 0.425215 0.111499 -3.95044 -0.29511 -0.163091 0.28592
121 1 0.132435 5.82793 0.30132 -2.35864 3.10392 -0.471262 0.192651 -3.94188 0.416251 0.250169 0.0447104
123 1 3.01618 5.86763 0.401842 1.00139 1.8653 -1.24788 0.262689 -3.99 0.016462 0.0274412 0.144991
16 1 7.14135 4.5226 -1.18151 0.603539 0.154603 0.133915 0.163024 -3.97608 0.165204 -0.385091 -0.363539
25 1 5.70759 5.92495 -2.71624 -0.827089 1.1553 2.35682 5.04674 -4.02255 0.0640976 -0.221768 -0.322988
26 1 7.1412 7.16975 -1.31523 -0.0337704 2.62343 0.778117 5.20243 -3.88226 0.261211 1.09698 0.392515
125 1 5.74127 5.95799 0.347044 -0.136011 -2.75282 -0.154075 0.139038 -4.08271 0.117161 -0.310571 0.0477233
127 1 8.57446 5.88387 0.204119 -1.51658 -3.67076 0.00771245 0.395575 -3.96563 0.237544 -0.231669 0.15364
18 1 10.0587 4.47472 -1.26138 2.01504 1.15568 0.108705 0.218721 -3.9749 0.0513976 0.204722 0.521808
20 1 12.7939 4.54238 -1.29689 -0.022531 3.00342 -1.17168 0.0638799 -4.02806 0.264095 0.295899 0.0798292
28 1 10.1169 7.35391 -1.16722 1.08986 -1.21663 1.80841 0.417322 -3.95097 -0.201393 -0.491035 0.350119
29 1 11.4127 5.98723 -2.82187 1.3822 1.47477 -0.555896 0.0543424 -4.00684 -0.256437 -0.34448 -0.322232
30 1 12.8531 7.28188 -1.1972 0.362699 -0.519128 0.486825 0.138297 -4.0156 -0.0671892 0.106049 0.0387544
129 1 11.3642 5.90889 0.354587 -0.995542 1.01394 2.2528 0.112863 -4.02598 0.319242 0.0691311 -0.219002
32 1 1.48279 10.1923 -1.33435 2.66336 -1.18469 0.933482 0.241484 -4.06132 0.368564 -0.377459 0.00733293
34 1 4.32744 10.195 -1.33338 -3.42019 -1.92301 1.41173 0.199924 -3.97491 -0.235568 -0.0908149 -0.00179619
43 1 2.92107 11.628 -2.817 2.17426 0.782241 3.50485 0.122099 -4.03659 -0.288909 -0.622221 -0.12589
133 1 2.87707 8.77788 0.336603 -1.44944 0.975575 0.710255 0.092809 -3.91979 0.362894 -0.0333916 -0.0626329
141 1 0.146359 11.6297 0.215673 -2.20193 -7.04944 -1.51669 0.334595 -4.0298 0.28986 0.13466 0.520901
143 1 2.92416 11.521 0.311641 -0.572232 1.1909 1.77002 0.167167 -4.04106 -0.163255 0.264672 -0.220423
36 1 7.17897 10.1662 -1.21293 0.10168 3.47717 0.174941 0.171939 -3.89738 0.0106138 0.0453532 0.149417
47 1 8.63625 11.4798 -2.73148 -1.46078 2.66256 0.234251 0.295804 -3.98031 -0.224938 -0.141484 -0.100868
135 1 5.71447 8.72482 0.417288 -0.880733 0.590278 -0.109653 5.72274 -3.94496 0.309123 -0.0515806 -0.0628786
137 1 8.61908 8.74613 0.2431 -4.19951 1.4167 -2.48788 0.377442 -3.99874 0.0797709 0.121509 -0.370651
145 1 5.78797 11.4174 0.314388 0.913579 -3.10787 0.676852 5.73218 -3.95132 -0.192216 0.315537 0.0326583
147 1 8.63173 11.5707 0.423169 -2.52053 -2.66134 -2.016 0.198504 -3.98548 -0.217931 0.673877 -0.667123
37 1 8.64539 8.6808 -2.69988 -0.410704 1.96136 0.795798 0.382195 -4.03691 -0.314863 0.377805 0.229062
41 1 14.1834 11.5242 -2.73564 -1.35835 -5.95404 3.83557 0.25623 -3.99358 -0.295665 0.243877 -0.182489
131 1 14.189 8.78043 0.439418 -1.59748 2.05417 3.03081 0.424177 -3.90936 0.541677 -0.495294 -0.141958
38 1 10.1092 10.2499 -1.14041 0.647054 3.02786 -2.05404 0.499876 -3.99445 -0.639482 -0.458314 0.505398
39 1 11.3428 8.78317 -2.78518 2.80774 -0.622395 -1.00191 0.224277 -3.9914 0.182414 -0.190746 0.450783
40 1 12.8549 10.1114 -1.12187 -1.75728 -0.634733 -0.267602 0.256513 -3.99329 0.0896973 -0.297241 -0.328692
139 1 11.4119 8.69776 0.403729 -0.425376 2.4171 -0.0430739 0.112699 -4.02955 0.401903 0.270275 -0.0987279
149 1 11.4267 11.5446 0.404665 -0.904464 -0.906018 0.248794 0.181444 -3.99748 0.121173 -0.0257543 -0.158885
49 1 11.351 11.4979 -2.75482 -3.94296 -1.72452 -3.57845 0.146591 -3.94842 0.0771392 -0.124545 -0.0133859
42 1 1.60077 12.9976 -1.35189 -0.841826 -0.173751 0.753914 0.43963 -3.98088 -0.594291 0.181525 0.439708
44 1 4.30049 12.9516 -1.36804 -1.17519 0.372824 -0.13007 6.09072 -4.04972 0.483386 -0.279532 0.140223
52 1 1.58776 15.7356 -1.10785 -0.585983 1.26946 1.71295 5.20393 -3.86489 -0.406477 -0.086465 -0.543909
54 1 4.38463 15.6552 -1.26648 0.269637 0.959657 1.9614 0.280886 -4.01438 -0.583552 0.356701 -0.112292
153 1 2.9946 14.2978 0.325595 -3.03426 -0.361765 3.65674 0.167942 -3.93782 -0.571897 -0.302588 0.373962
46 1 7.13899 12.8477 -1.29264 -0.042375 -0.703018 -2.37022 5.26123 -3.94981 -0.181358 0.268344 0.133862
56 1 7.08452 15.7726 -1.35058 0.19616 0.505449 -1.21975 0.265658 -4.02049 -0.0333884 -0.4141 0.167521
155 1 5.76502 14.3443 0.265093 -0.699273 2.50818 -2.71856 0.104611 -3.98252 0.343539 0.0299498 0.00677283
157 1 8.53251 14.4644 0.354478 1.77519 1.9958 -4.01974 5.2129 -3.98762 0.131695 -0.137472 0.165498
57 1 8.49816 14.3386 -2.69122 5.27468 2.46447 0.151665 0.534473 -3.88084 0.379106 -0.0134495 -0.829996
51 1 14.0057 14.3518 -2.84027 5.08997 3.62125 -2.07853 4.93063 -3.89609 1.25062 -0.126037 -0.0212757
151 1 14.2009 14.4155 0.334522 -4.71089 2.01634 -0.85659 0.12741 -3.90019 0.1525 -0.401015 0.00196445
48 1 9.93985 13.0563 -1.23875 2.86016 2.34417 0.701272 5.21301 -3.9715 0.46413 -0.318335 0.249735
50 1 12.7181 12.9904 -1.24162 0.559624 -1.36974 -0.820506 0.184544 -3.97907 0.213523 -0.48741 0.0650378
58 1 9.99316 15.7186 -1.25793 -3.3381 -1.51398 5.38263 0.179353 -4.01479 -0.0149922 0.280869 0.175859
60 1 12.7967 15.7437 -1.25194 1.53771 1.90327 -4.70531 0.114244 -4.01358 -0.33295 0.0811348 0.278947
159 1 11.3491 14.3264 0.387746 -0.265735 -1.65506 -3.98071 0.154752 -3.98539 -0.0116691 0.29395 -0.331808
62 1 1.43944 18.5161 -1.21419 0.272627 0.831543 -0.200207 0.117405 -3.94192 0.501274 0.563906 -0.584427
64 1 4.38586 18.6552 -1.20976 1.24428 1.0664 2.86252 5.34673 -3.94284 -0.333428 -0.486736 0.27455
163 1 2.94245 17.1558 0.214249 0.341627 2.40032 0.506019 0.411949 -3.96427 0.677228 0.409172 0.275976
171 1 0.141802 19.9783 0.427247 -0.0590841 -1.37942 4.27312 0.177586 -4.04836 -0.695433 -0.158578 -0.208538
173 1 2.89555 19.9823 0.302277 0.785649 -1.23368 2.3689 0.150073 -4.02101 -0.693581 0.0405157 0.171463
66 1 7.24355 18.6165 -1.21059 2.75597 -4.35103 0.905848 5.63661 -4.0466 -0.695758 0.213283 0.108928
67 1 8.57677 17.1461 -2.81513 -4.30079 -3.56988 1.31798 0.049595 -4.06359 -0.364603 -0.232113 -0.0136033
165 1 5.78304 17.093 0.255526 1.97311 1.99329 -0.167527 0.245449 -3.96584 -0.144063 0.216878 0.170232
167 1 8.56005 17.078 0.199228 1.63712 1.01306 -0.622391 4.79371 -4.01801 -0.0902316 -0.122406 0.554299
175 1 5.70632 20.007 0.329653 -3.42076 -2.85137 2.01629 0.136886 -3.97429 0.379344 0.1868 0.31153
177 1 8.58858 20.043 0.546505 -1.05917 0.80188 -0.731301 1.04125 -3.94733 -0.103885 -0.267824 -0.375816
75 1 5.71713 19.9361 -2.83075 -4.53949 -0.9021 2.29786 0.133783 -3.97459 -0.29705 0.227556 -0.700872
65 1 5.67248 17.193 -2.79053 -1.31158 -3.63153 -0.620776 0.340356 -4.0155 0.294694 -0.237776 -0.21395
161 1 14.1852 17.2046 0.432766 -8.06951 -0.86164 0.0732044 0.22365 -4.04844 0.118669 -0.17274 -0.639241
68 1 9.83757 18.5862 -1.18279 1.01621 0.95189 3.77626 5.415 -4.01769 0.356465 0.438929 -0.0267143
70 1 12.7582 18.5098 -1.22547 -2.75978 -0.241021 0.901339 0.158857 -3.90007 -0.0785995 0.492941 -0.464048
169 1 11.4357 17.1907 0.318527 -0.050047 0.778513 1.36961 0.112584 -3.96448 -0.36473 -0.0643746 0.232828
179 1 11.4548 19.9395 0.408635 0.478562 4.61523 -0.247094 0.253205 -4.0037 -0.0648071 0.00394247 -0.409872
69 1 11.3235 17.1806 -2.72916 2.51938 -0.439877 2.89062 0.225752 -3.9684 0.211295 -0.410022 -0.200336
71 1 14.189 20.001 -2.72213 -3.02828 1.71166 0.793185 0.311889 -3.86371 -0.000212116 -0.787872 0.151364
61 1 14.2026 17.0274 -2.76465 -2.79754 0.110739 5.17862 0.303189 -3.92703 0.327885 0.313124 0.404167
72 1 1.54936 21.3951 -1.31267 2.3338 -3.4761 -2.56089 0.179576 -4.04691 -0.0534886 -0.0378472 -0.580227
74 1 4.24289 21.3195 -1.17605 -0.775897 2.76848 -0.309503 0.380225 -4.11024 0.640909 0.235811 -0.175558
82 1 1.5098 24.075 -1.38904 -0.197856 1.54937 -4.05427 0.299499 -4.02652 -0.272566 0.593588 -0.322552
84 1 4.24694 24.1216 -1.23474 1.75243 2.83472 -4.12876 0.401995 -3.94093 0.687227 0.29334 -0.363461
181 1 0.128659 22.763 0.264328 -3.03311 -1.67311 -0.629939 0.0480576 -4.02494 0.13513 -0.638618 -0.272933
183 1 2.89382 22.7594 0.219682 0.572942 -1.11899 -0.365379 0.168551 -4.0611 -0.148156 0.307504 0.120365
76 1 7.14056 21.2635 -1.26231 -0.691281 0.193514 1.05787 5.41564 -3.86907 0.316872 0.918543 0.184765
86 1 7.25436 24.2668 -1.25955 -2.43118 3.29649 -1.15762 5.7496 -3.8755 0.00299565 -0.3576 -0.416222
185 1 5.72509 22.8979 0.225012 3.67767 -2.14848 -3.35625 0.476878 -4.00501 0.3068 -0.889028 -0.0717138
187 1 8.47118 22.692 0.405122 -0.732136 -0.532565 -1.73565 5.258 -3.98096 0.0978462 0.35519 -0.0745561
78 1 9.92402 21.3232 -1.32064 -2.14879 -1.2859 1.20999 0.229275 -3.99115 0.192772 0.129551 0.534957
80 1 12.7264 21.3466 -1.24186 -2.02506 0.894117 1.33119 0.0650134 -3.94497 0.385708 0.235915 0.00583733
88 1 9.99398 24.1702 -1.21671 -1.34963 2.3224 -3.76156 0.210082 -3.97448 -0.256872 -0.00794187 0.0324715
90 1 12.8226 24.1983 -1.35541 -3.32555 -1.34099 0.789537 0.184963 -3.93213 -0.876871 -0.160465 0.191821
189 1 11.404 22.6532 0.245334 1.1462 2.87937 3.03823 0.291908 -3.90237 0.0805014 0.345504 -0.16887
92 1 1.49183 27.0716 -1.27353 -1.55268 0.823337 -0.21304 0.069557 -3.94388 -0.292781 -0.440847 0.370577
93 1 2.95679 25.6072 -2.82009 -2.98218 -1.24306 2.03838 0.175196 -3.96031 0.100033 0.478153 -0.234055
94 1 4.31233 27.0701 -1.10761 -2.42482 -0.468398 -1.32983 0.703194 -3.93525 -0.100446 -0.266801 -0.616234
193 1 2.87926 25.4829 0.23523 -1.0862 0.475835 1.41936 0.420201 -3.93845 -0.150269 0.932887 0.113937
5 1 5.72241 28.2956 -2.75607 2.69086 -0.906142 0.0342517 5.13166 -3.97789 0.0413884 0.15686 -0.163361
107 1 8.62684 28.3911 0.347801 1.62718 -2.83475 -3.52836 0.300853 -4.04225 -0.266517 0.746841 -0.637478
96 1 7.19496 27.0059 -1.2712 3.8854 -2.09663 -3.2721 0.03916 -4.03563 -0.008337 -0.223791 0.196657
195 1 5.7699 25.6353 0.251003 -1.7019 -1.17403 1.74296 0.138233 -3.91517 -0.0140509 -0.272676 0.603822
197 1 8.65402 25.6862 0.306448 -0.592902 -0.620959 0.00800132 0.32542 -4.03297 -0.142384 -0.700707 -0.108068
7 1 8.51249 28.4072 -2.73392 0.305773 -1.36188 3.04787 0.351084 -3.96966 0.167594 -0.0141442 -0.582531
191 1 14.1954 25.5315 0.260691 -0.0885336 -4.4938 -0.48509 0.208713 -3.90626 0.748834 0.121959 -0.776885
98 1 9.85719 27.0277 -1.31767 2.60699 4.64685 0.62246 5.53735 -4.07335 0.879717 0.187469 -0.37226
100 1 12.8111 27.1397 -1.26004 0.688756 2.41483 -3.36628 0.111314 -3.96138 -0.144473 -0.591061 0.0836999
199 1 11.3947 25.7747 0.308102 -1.77748 -0.753815 0.440887 0.586195 -3.91726 0.658915 -0.526072 -0.306029
99 1 11.3966 25.6653 -2.77526 -3.11862 -0.640777 0.494149 0.141926 -3.99563 -0.0167746 -0.159639 -0.257155
102 1 1.43258 1.58866 1.91241 7.38627 -3.29026 1.48818 0.297862 -4.03695 0.110187 0.416737 -0.0521145
104 1 4.40471 1.70471 1.8182 -2.62904 -0.431866 -2.50035 0.234093 -3.95665 -0.87529 -0.171066 -0.13923
202 1 1.64591 1.56967 4.9142 2.02744 3.5456 -1.59179 4.67847 -4.03414 -0.476055 0.813212 -0.315936
203 1 2.94499 0.259696 3.41486 -1.3304 -3.48688 0.0854903 0.130112 -4.05031 0.0832448 0.0108905 -0.674544
204 1 4.18458 1.68524 4.99896 -0.935437 1.48785 2.63114 4.6097 -3.99467 0.857942 -0.531443 -0.49869
213 1 2.88677 3.08084 3.3791 -2.28947 -0.845795 -1.07431 0.360722 -4.01822 -0.154452 -0.191286 -0.00153303
106 1 7.15632 1.63052 1.80247 0.736671 -1.16949 0.0239501 0.247927 -4.05827 0.312881 0.120875 0.857205
205 1 5.64874 0.299036 3.27452 2.33469 0.995414 0.291621 4.70395 -3.91029 0.404212 -0.353188 1.00338
206 1 7.2548 1.68985 4.95876 -1.46106 -1.55409 1.7364 4.85552 -3.95334 -0.191137 -0.307201 -0.00922611
207 1 8.58474 0.236208 3.49401 1.31666 3.04051 1.49325 0.155097 -3.96271 0.450878 0.356179 -0.752403
215 1 5.78167 2.95842 3.54867 -1.49422 -2.50707 3.51511 0.532535 -3.96512 -0.538252 0.247883 -0.0786845
217 1 8.60442 3.0921 3.43904 -1.80041 2.92479 -5.24384 0.122776 -4.02175 -0.425901 0.154701 0.256066
201 1 14.2143 0.277593 3.49781 -0.76465 1.66164 -3.30675 0.324654 -4.00717 -0.513743 -0.0685736 0.114336
211 1 14.1953 3.09372 3.55401 0.131749 -3.47244 0.658656 0.279496 -3.94747 -0.0590747 -0.312858 -0.166043
108 1 9.98023 1.81548 1.93492 1.78008 -0.0382443 0.481447 5.66743 -3.90325 0.0623942 -0.71339 -0.0468788
110 1 12.7567 1.63776 1.84105 0.143622 0.261967 0.471904 0.163506 -3.88796 0.392782 0.33636 0.570125
219 1 11.4042 3.08595 3.46487 2.96876 -3.6 -0.306264 0.0662187 -3.94113 -0.358695 -0.223763 0.0295277
112 1 1.47335 4.44722 1.99949 -2.08488 5.53109 1.88305 0.247143 -3.95138 -0.191237 0.861028 -0.0350289
114 1 4.45714 4.53943 2.01241 0.408107 -1.46821 1.68028 5.22498 -4.02399 -0.381192 -0.733501 -0.142166
122 1 1.5387 7.19477 1.96532 -2.178 2.10286 -1.52883 0.267841 -3.8867 -0.299666 0.151203 -0.251989
124 1 4.30599 7.3213 1.94174 -1.70609 -0.894295 0.386355 0.159975 -3.94545 0.0732016 0.0253844 0.210541
223 1 3.00176 5.86832 3.50592 -2.9209 -3.41332 -1.19244 0.120285 -4.01097 -0.0944433 -0.123147 0.0312472
116 1 7.08446 4.43511 1.94218 -0.717838 -0.661302 1.69127 5.33178 -3.99822 0.723396 0.468076 0.126403
126 1 7.33953 7.39572 1.92031 1.37971 -3.46356 0.697126 0.499473 -3.89067 -0.457788 -0.661475 0.00379923
216 1 7.15048 4.45322 4.91567 0.663868 1.20315 1.59813 0.350835 -4.04832 0.334129 0.781848 0.132597
225 1 5.7941 6.05956 3.41748 0.299468 -1.75276 -1.18853 5.62266 -3.95723 -0.0468756 -0.31407 0.362168
227 1 8.61587 5.8789 3.42432 -0.532809 -0.371899 0.126652 0.137822 -3.9702 0.145155 -0.365607 -0.0550495
221 1 14.1524 5.86373 3.52053 0.796103 -1.93786 -0.0692733 0.131323 -4.00213 -0.134365 0.0554541 -0.0532472
118 1 10.0291 4.4796 1.90373 -2.00022 0.251406 -1.34662 0.105651 -4.04852 -0.200782 0.113771 -0.252556
120 1 12.7727 4.51546 1.8374 -2.93314 -0.0391201 0.674702 0.11905 -4.00633 0.151434 -0.314526 0.094012
128 1 10.0124 7.32217 1.85319 -2.7644 2.28321 3.1472 0.135119 -4.03331 -0.656524 0.290825 -0.194421
130 1 12.7448 7.26336 1.85933 -1.8326 -3.86476 -3.53257 0.168895 -4.02125 0.181198 -0.0740756 -0.00191803
218 1 9.92391 4.44006 5.03243 2.54663 2.02038 1.45237 0.0892899 -4.02771 0.249389 0.325182 0.123671
220 1 12.7806 4.44772 5.02391 -0.879614 -1.25736 1.20844 0.0650133 -3.89864 -0.191175 0.188005 0.413932
229 1 11.2652 5.91426 3.49956 0.58398 1.74186 -1.1864 0.304086 -4.01948 1.08836 0.215152 -0.0565179
230 1 12.8446 7.35538 4.94624 2.31232 0.678649 1.21522 0.279935 -3.97748 -0.634689 -0.359376 0.23355
132 1 1.49806 10.2454 1.81807 0.926583 1.77752 2.20689 0.206894 -3.97255 0.0432908 -0.61761 0.421537
134 1 4.33421 10.2257 1.96036 -1.95039 -2.01599 -1.69927 5.46039 -3.94301 0.188102 -0.694294 0.278444
233 1 2.86938 8.7146 3.52322 -0.683116 0.194601 5.31636 0.147709 -3.90306 0.384814 0.0195468 -0.50882
234 1 4.30212 10.2221 5.03028 -0.621179 0.157015 -0.123602 5.49101 -3.97333 0.654076 -0.372581 -0.111814
241 1 0.149986 11.5192 3.41896 -2.41095 0.904273 -0.0212207 0.0947319 -4.01283 0.144504 0.029952 0.0667374
243 1 2.87755 11.525 3.36417 -0.234391 0.744033 0.670144 0.257277 -3.98405 0.0879133 -0.157004 0.393709
136 1 7.34978 10.1327 1.93686 0.629619 0.98562 1.20116 5.05467 -4.03955 -0.358485 0.200323 -0.170422
235 1 5.87066 8.81598 3.38905 0.465343 -1.43871 1.4062 0.39378 -3.98882 -0.700394 -0.469022 0.00600243
237 1 8.63235 8.75913 3.62073 2.56455 0.935182 0.542097 0.391506 -4.07702 -0.110462 0.185034 -0.711454
245 1 5.87987 11.5851 3.45621 0.240801 -0.541356 -0.243051 0.425268 -3.97965 -0.473665 -0.23005 -0.344887
247 1 8.6244 11.498 3.56974 0.432483 -3.51449 2.45946 0.204037 -4.06144 -0.28267 0.733002 -0.00273937
231 1 14.2058 8.74973 3.41789 -0.187028 1.52542 1.17023 0.0875418 -4.02399 0.673177 -0.309334 -0.193755
138 1 9.92992 10.142 1.86719 -1.64946 -2.47072 4.24093 5.30864 -4.07323 0.904037 0.0292144 0.140437
140 1 12.8378 10.2224 1.87569 -3.06779 0.590986 0.953237 0.199599 -4.03467 -0.3773 -0.021762 0.357705
239 1 11.364 8.67474 3.42556 1.07823 -1.10089 5.00007 0.101986 -4.02134 0.00681107 0.161324 -0.345258
240 1 12.788 10.0949 4.8734 0.473313 1.12475 -2.36237 0.40042 -3.92167 0.227176 0.341778 0.705829
249 1 11.3994 11.5636 3.55852 0.00818624 4.09037 -1.73351 0.262196 -4.00751 -0.290487 -0.0690951 -0.302836
142 1 1.52181 13.0509 1.98272 -1.28477 -4.17543 2.9049 0.366982 -4.01922 -0.131046 0.066571 -0.324406
144 1 4.29805 12.8216 1.80727 1.81958 -2.20134 0.0142737 4.94899 -3.96525 0.772893 0.700381 0.21289
152 1 1.51339 15.8576 1.95748 -0.669006 2.84052 -0.820189 5.41845 -4.08259 0.292768 -0.720711 -0.554744
154 1 4.25725 15.7179 1.86748 2.46855 -1.35996 -1.82568 0.309673 -3.97134 0.301709 0.521791 -0.317516
242 1 1.53992 12.9165 4.99802 0.280113 3.4737 -1.1283 0.125976 -4.03721 0.203322 -0.108367 -0.311806
244 1 4.24982 12.7782 5.02612 2.14938 -0.0921022 -0.749942 5.41812 -3.98225 0.016804 0.423302 0.0809229
251 1 0.128475 14.4623 3.52299 2.68999 -0.1114 0.508103 0.231296 -3.9753 -0.359513 -0.285386 -0.0641308
252 1 1.63436 15.7834 4.9056 -3.12021 0.366244 0.726554 4.68967 -3.93885 -0.219156 -0.454369 0.376739
253 1 3.02926 14.3678 3.49636 0.643288 -2.70259 -2.00417 0.363921 -3.96681 0.200852 0.109329 -0.0619366
146 1 7.13468 12.9886 1.88264 1.04428 0.1527 -2.62964 0.133273 -3.85911 0.573418 -0.574276 -0.217604
156 1 7.1141 15.8395 1.91105 -5.45427 -4.00032 2.42238 0.299413 -3.98898 0.301071 0.254687 -0.124149
255 1 5.79332 14.3612 3.4089 0.949383 2.2935 -3.25327 0.184526 -3.97811 -0.51614 0.178045 0.115638
256 1 7.19239 15.8423 4.92842 -0.861153 0.781607 -0.146585 0.395827 -4.02105 0.424625 -0.663678 -0.0113318
257 1 8.60857 14.4287 3.51373 -2.00567 3.54744 2.76289 0.0755211 -3.96794 -0.286635 -0.677721 -0.240037
148 1 10.0789 12.8625 1.98534 2.53119 -0.204599 1.59625 5.28668 -3.95062 -0.264542 0.376988 -0.296164
150 1 12.8144 12.9078 1.94961 0.842405 -1.04171 -0.584461 0.162757 -4.04673 0.67041 0.00895024 -0.219094
158 1 10.0599 15.8093 1.96737 1.95172 -4.28031 -2.67566 0.265194 -3.93469 0.0723073 -0.441742 0.158703
160 1 12.7974 15.8078 1.86245 2.05154 2.79304 -0.0709358 0.203687 -3.97934 0.308431 -0.222595 0.671758
250 1 12.9049 12.9601 4.97614 1.45982 -1.9964 -1.75047 0.276628 -4.01438 -0.368043 -0.441759 0.250909
259 1 11.5154 14.2983 3.45458 2.36546 0.76793 -0.871017 0.269562 -4.01592 -0.388383 0.734199 -0.0433383
162 1 1.61205 18.4318 1.89609 0.103087 0.473685 0.329909 5.14258 -3.98528 0.171558 0.695936 -0.103966
164 1 4.41893 18.6151 1.77646 -0.211573 3.22505 -5.20284 0.360777 -3.98522 -0.441787 -0.484965 0.044024
262 1 1.64124 18.6991 5.01423 -1.57751 0.894061 -4.43727 5.14869 -4.01316 -0.56179 -0.481905 0.248302
263 1 3.02324 17.1738 3.44059 -2.37006 -0.133771 0.32695 0.272335 -4.02535 0.00537047 0.423976 0.267978
271 1 0.239882 19.931 3.34445 -2.9132 -1.24747 -1.34561 0.615443 -4.00167 0.0152824 0.333554 0.164939
273 1 3.06119 20.0027 3.45744 0.40391 -0.0741893 3.19324 5.53096 -3.99086 0.140412 0.541521 -0.299142
166 1 7.16241 18.5363 1.87691 0.698547 0.150344 -2.49931 0.187973 -4.02469 0.000846899 -0.253772 -0.313163
265 1 5.71847 17.1429 3.58245 -1.6126 -0.82668 -3.54668 0.461825 -4.00123 -0.559251 0.163627 -0.06383
266 1 7.25348 18.553 4.92973 1.95445 3.37989 -0.145865 5.05113 -3.92128 -0.786733 -0.0110783 0.331703
267 1 8.63962 17.1234 3.37916 1.62128 1.24999 -1.44411 0.274321 -3.96852 -0.000780354 0.361603 0.536486
275 1 5.66392 19.9514 3.46402 0.0670137 -1.38317 -3.87798 5.21432 -3.9913 0.614964 0.122827 0.130997
277 1 8.52362 20.0544 3.45282 0.898333 -0.0775842 -0.479706 0.26069 -4.01866 0.542987 -0.0531987 0.0120862
261 1 14.1769 17.1487 3.53746 3.22524 -0.724689 1.23685 0.360805 -4.03167 -0.0198792 0.148332 -0.047881
168 1 9.9888 18.5753 1.92165 -3.61858 0.233632 -1.83299 0.219285 -3.95216 -0.283633 -0.511611 -0.181469
170 1 12.8038 18.6463 2.03234 0.900172 4.64776 -2.52583 0.345814 -4.02281 0.211616 -0.808947 -0.361668
269 1 11.4148 17.1891 3.64806 1.22914 3.37173 -1.05524 0.416742 -3.98464 0.477225 0.665447 -0.736555
270 1 12.909 18.7314 5.01972 -1.75346 -1.91228 -0.862528 5.44301 -3.96058 -0.585015 -0.0497829 0.380436
279 1 11.3598 20.0486 3.42998 2.0114 -4.45816 0.994583 0.277207 -3.93411 -0.309781 -0.0311449 0.19107
172 1 1.47279 21.4257 1.92489 2.33301 -0.225112 2.95214 0.282518 -4.00107 0.483581 0.154537 -0.25714
174 1 4.32705 21.4567 1.76493 -1.27528 -0.710527 -1.51037 0.285781 -4.00726 -0.042407 -0.390822 -0.214552
182 1 1.5749 24.1646 1.87521 -0.784188 -3.79054 -2.16947 0.0654756 -4.01987 -0.680069 -0.120685 0.0765805
184 1 4.3073 24.238 1.83067 -0.587332 0.565944 -1.32797 0.146418 -3.99883 0.0229728 -0.0979402 -0.330283
272 1 1.50093 21.4332 4.93581 -1.3891 0.701157 2.48604 0.387573 -4.05515 0.0979966 0.030454 0.352586
281 1 0.183488 22.7914 3.51982 -2.74019 0.616667 0.622568 0.16474 -3.94883 -0.358997 0.0266046 -0.166043
283 1 2.92311 22.8102 3.53837 1.18139 2.06881 4.32688 0.187163 -3.93639 0.722573 -0.0165208 0.0772704
176 1 7.06694 21.3141 1.94649 -3.95137 -1.5893 -1.01736 0.398388 -4.0129 0.241176 -0.209736 -0.623825
186 1 7.17879 24.1447 1.7789 2.78581 2.06017 1.88695 0.198067 -3.91519 0.138915 0.858793 -0.14575
285 1 5.85589 22.7635 3.32325 1.31531 1.02106 -0.50399 0.566246 -3.93266 -0.650204 0.532437 0.638943
287 1 8.6565 22.7436 3.37109 2.42 3.87829 -0.705154 4.94204 -4.09399 -0.329268 0.526515 0.515542
178 1 9.99102 21.4199 1.83559 -1.13098 -1.50552 3.15931 0.255041 -4.03784 0.320299 -0.357199 0.252083
180 1 12.8404 21.4228 1.97341 -0.471497 0.0061306 0.269058 0.309515 -4.11325 -0.0888995 0.175896 0.525828
188 1 10.0407 24.0693 1.72545 -1.30348 -2.27273 0.479064 4.84474 -3.90409 -0.0971698 0.987221 -0.376459
190 1 12.925 24.1389 1.84627 -1.55903 -2.12372 1.13416 5.60458 -3.89596 -0.945393 -0.0710587 0.511839
280 1 12.8739 21.3633 4.95043 1.61778 1.13426 1.57654 5.64122 -4.03189 -0.0261339 0.298807 -0.165002
289 1 11.3072 22.8471 3.4584 -3.96248 4.07387 -0.259648 0.498051 -4.01766 0.340412 -0.0957396 0.222259
290 1 12.8777 24.1232 5.00863 1.06046 -1.98762 3.24564 0.240215 -4.01288 -0.552915 0.11135 0.41702
192 1 1.54582 26.9795 1.90931 0.832332 -0.820942 0.130328 0.150701 -4.02876 0.029724 0.14346 0.247214
194 1 4.33343 27.1078 1.84978 -1.61671 -3.20912 1.28134 0.253887 -3.97809 -0.0531218 -0.689905 -0.755328
291 1 0.123486 25.6243 3.5804 -1.91934 -0.395923 -0.219087 0.403939 -3.94641 0.0952591 -0.177364 -0.24997
292 1 1.58125 27.1181 4.9208 0.521729 -0.104332 -0.21211 0.283314 -4.04321 0.0880104 -0.730793 0.272564
293 1 3.0799 25.6086 3.42936 2.80973 1.17343 -0.298043 5.86574 -3.92731 -0.895639 0.144495 0.114993
294 1 4.2495 27.1204 5.00089 -1.17778 2.9951 1.58236 0.254884 -3.97236 0.630349 0.150933 -0.186495
196 1 7.3038 27.0489 1.99687 3.37805 -2.98627 4.17109 4.90136 -3.9384 -0.712784 -0.144506 -0.373617
295 1 5.73558 25.636 3.40771 2.43808 0.681994 -1.51506 0.164187 -3.99066 0.504016 0.110384 0.417591
296 1 7.17419 27.0665 4.91025 0.309675 6.50899 -1.89168 0.258079 -3.91828 -0.387024 0.666281 -0.429234
297 1 8.56397 25.5256 3.45595 -0.134748 1.31643 -3.31811 0.357014 -3.98172 0.640201 0.175091 -0.088181
209 1 11.3537 28.3011 3.52552 -0.393176 -1.47754 0.78913 5.91455 -3.87021 0.648528 0.652387 -0.815839
198 1 9.95313 27.0869 1.78543 0.689763 -0.698924 -1.31982 5.16304 -3.86081 0.289993 -0.491453 0.713697
200 1 13.0099 27.0067 1.84138 5.30296 -0.270392 0.651806 5.52897 -3.91542 -0.647607 -0.11133 0.147281
299 1 11.357 25.6421 3.50015 0.613569 6.18239 1.53807 6.25509 -3.88072 0.33307 -0.17462 0.0536138
301 1 0.190771 0.330155 6.46751 0.5675 -0.168496 -2.46061 4.93492 -4.0476 0.306847 -0.312151 -0.0515118
302 1 1.52998 1.64637 8.31025 -1.42736 -3.15682 0.972455 0.311974 -4.00025 0.078772 -0.11546 -0.0452773
303 1 2.87995 0.257353 6.62737 0.341516 -0.0404191 -2.60214 0.187774 -4.04586 0.119872 -0.126739 0.123899
304 1 4.29008 1.6221 8.14539 -4.04083 -0.468429 4.02966 0.158048 -3.93516 0.38074 0.831445 0.327532
311 1 0.149724 2.85167 6.61875 -1.74976 0.28104 0.763369 5.22406 -3.91943 -0.184561 0.935595 -0.334737
313 1 2.89377 2.99568 6.501 0.148637 -0.416692 -0.495992 0.361673 -3.91665 -0.173017 0.52959 0.223949
305 1 5.63949 0.272746 6.62289 -2.6762 0.601797 -1.53878 5.08708 -3.87755 1.0475 0.49142 -0.471538
306 1 7.16827 1.7968 8.17589 -0.497955 1.38302 -0.554626 5.80843 -3.90519 -0.270023 -0.759037 0.383523
307 1 8.54451 0.339894 6.66899 2.06573 -1.47317 -0.377265 0.331236 -4.00547 -0.0834334 -0.941184 0.273083
315 1 5.88369 2.98404 6.53602 0.746495 3.22544 0.384377 5.28954 -3.99862 -0.720026 0.529578 0.28592
317 1 8.5575 3.091 6.53734 0.877774 1.33708 0.284955 0.0773657 -4.11833 -0.180672 0.127767 0.306262
208 1 9.93587 1.5992 5.05147 -2.11946 3.54369 -4.60115 0.12457 -4.08742 0.235436 0.203616 0.0739349
210 1 12.7168 1.62492 5.08096 1.93469 -2.84729 3.21644 0.359049 -3.95809 -0.257719 0.13467 -0.336102
308 1 9.85407 1.73124 8.13093 -3.32365 0.641461 0.348771 0.207817 -3.98521 0.320538 -0.550538 -0.405591
309 1 11.427 0.271834 6.66682 2.261 -0.338001 1.59023 0.154699 -3.97462 -0.240175 -0.167434 0.20153
310 1 12.8338 1.67333 8.15302 -2.12593 2.9352 -1.91821 0.17323 -3.96507 -0.333673 -0.333459 0.390409
319 1 11.2832 3.0542 6.62669 1.40137 -1.12676 -0.599603 0.110104 -4.02255 0.998246 -0.038821 -0.128187
212 1 1.5107 4.56417 5.05789 1.71349 1.1107 -0.37813 5.45282 -4.00897 0.480394 -0.603487 -0.145619
214 1 4.35594 4.34938 5.07673 -3.60792 0.888428 1.10906 4.96606 -3.97179 0.251014 0.62169 -0.492441
222 1 1.54559 7.23945 5.03558 2.60978 -1.28947 -2.65909 0.158622 -4.02165 -0.375773 -0.310877 0.0417171
224 1 4.45542 7.31972 5.07291 2.28078 -2.16034 3.83898 0.303627 -3.9613 -0.868537 0.0496839 -0.484408
312 1 1.51633 4.46751 8.10702 6.58074 -1.87872 -2.48992 0.250813 -4.0008 0.524271 0.0139634 -0.31188
314 1 4.38482 4.47065 8.22636 1.38421 -0.500902 1.94911 0.161472 -3.913 -0.381507 -0.0321429 -0.275117
322 1 1.50912 7.24612 8.09269 2.77664 -2.04083 2.3912 0.112492 -3.98069 -0.0587668 -0.0991728 -0.24827
323 1 3.05231 5.91185 6.55059 -1.31866 2.39502 -0.268551 0.265604 -3.97453 -0.397402 0.206853 0.0002463
324 1 4.3708 7.29584 8.1214 1.4459 0.563605 -1.51929 0.129094 -4.00154 0.122331 -0.246835 -0.38764
226 1 7.22143 7.27669 5.03847 -1.92098 2.73055 -2.00716 0.112085 -4.03541 0.163057 0.218755 0.608572
316 1 7.10763 4.57462 8.16093 2.31643 -3.52172 -0.258836 0.360488 -4.02092 -0.243158 -0.940186 -0.202936
325 1 5.76431 5.8264 6.49077 -2.43851 2.57701 -2.10025 0.262199 -3.99219 -0.249136 0.231765 0.544751
326 1 7.19795 7.24786 8.07119 -1.71798 -0.00966545 0.572563 0.266253 -4.04812 -0.495891 0.463184 -0.626097
327 1 8.55272 5.78657 6.69961 -1.12912 -0.410511 1.0442 0.540367 -3.98039 -0.0967127 0.534683 -0.531533
228 1 9.92162 7.27115 5.12046 0.0778168 -0.255412 1.79302 0.265591 -4.00628 0.287845 0.244101 0.342266
321 1 14.1448 5.82456 6.591 4.06995 0.134137 -0.309495 0.200458 -3.9781 -0.0272409 0.595671 -0.151
318 1 9.98504 4.43593 8.1254 1.75132 -4.65897 3.2673 0.0891676 -4.01634 -0.136095 0.448926 0.229832
320 1 12.7757 4.48205 8.13239 1.89733 -3.11783 2.82706 0.188024 -3.95201 0.35524 -0.507407 0.1424
328 1 10.0129 7.28399 8.00375 2.65819 -0.927283 -2.4793 0.513819 -3.9817 -0.123567 0.253042 0.449796
329 1 11.4291 5.87426 6.57325 1.9858 -1.38951 -0.786356 0.0745228 -4.00059 -0.0475566 0.179243 -0.383359
330 1 12.8425 7.28945 8.1544 -1.97867 0.420953 -1.07444 0.0955774 -4.05998 -0.209668 -0.218508 0.418708
232 1 1.56015 10.1641 5.05267 2.12226 0.0705619 -0.681687 0.217631 -4.0326 -0.0846666 -0.198839 -0.645582
332 1 1.46321 10.1244 8.18844 1.59487 2.03124 0.780371 0.279623 -4.00213 -0.441656 -0.324094 -0.0245501