ITEM: TIMESTEP
58500
ITEM: NUMBER OF ATOMS
2000
ITEM: BOX BOUNDS pp pp pp
1.0838953229856951e-01 1.4221610467701321e+01
2.1677906459713903e-01 2.8443220935402643e+01
-1.2176887202478439e+00 5.8537688720247409e+01
ITEM: ATOMS id type x y z vx vy vz c_csym c_peratom fx fy fz
2 1 1.62332 1.66863 0.28383 -0.282889 -3.25185 -0.636516 0.277896 -4.07169 -0.411004 0.152111 -0.250773
4 1 4.35789 1.61575 0.211291 0.990702 -5.33602 3.45801 0.226946 -4.1027 0.37629 0.326832 0.483682
11 1 0.115605 3.14255 -1.16942 0.617832 -0.194419 3.50607 0.214117 -4.02628 -0.0261087 -0.282396 0.0846301
101 1 0.126621 0.284403 1.74283 -1.57173 1.46596 2.1275 0.152 -4.08545 -0.216643 -0.130168 -0.03047
103 1 2.85007 0.270771 1.80274 0.287695 0.367304 -1.8153 0.240032 -3.9732 0.283597 0.243405 -0.255817
111 1 0.168447 3.08626 1.76942 -2.2925 0.592843 0.179022 0.131485 -4.10309 -0.174906 0.235536 -0.0344294
113 1 2.87763 3.13123 1.8252 -1.71434 2.42111 -1.1208 0.330501 -4.046 0.0134249 0.225849 0.28546
13 1 2.94284 3.10367 -1.19857 -0.0706192 -1.95523 0.774801 0.0727244 -3.99525 -0.292546 0.196026 0.0760955
6 1 7.17995 1.58532 0.277037 -1.53139 -1.81767 -2.43971 0.227264 -4.06697 0.0553826 0.483682 0.182312
17 1 8.63608 3.25517 -1.14812 -1.24355 -0.0988133 -0.860341 5.00869 -4.04066 -0.155611 -0.712452 -0.421712
105 1 5.90739 0.22905 1.77088 0.812795 -1.48127 -4.16198 0.294331 -4.05654 -0.20632 -0.107876 0.2496
115 1 5.79048 3.13764 1.75606 -0.932742 0.818202 0.0439582 0.181059 -4.02509 0.0161534 -0.591972 -0.113396
117 1 8.60233 3.08029 1.83684 0.475293 0.415756 -1.302 0.162779 -4.03196 -0.219256 0.0183042 -1.08042
15 1 5.86915 3.09703 -1.16028 -1.1078 -3.23994 -0.243916 0.292081 -3.97929 -0.554468 0.311658 -0.462095
8 1 9.98472 1.71462 0.161155 1.02028 2.64764 -1.65962 0.390168 -4.02913 -0.329446 -0.0194716 0.965365
9 1 11.3244 0.287262 -1.11682 -0.628437 1.37052 0.162777 0.394118 -4.02582 0.975228 -0.267964 -0.623737
10 1 12.8557 1.68831 0.211823 -0.261261 2.58464 0.684826 0.134433 -4.00657 -0.324963 0.212389 0.305599
109 1 11.3921 0.306018 1.74082 4.17545 -4.26001 3.01885 0.168151 -4.04875 -0.443635 -0.28798 -0.167727
119 1 11.4562 3.11085 1.68648 -0.877516 0.612354 1.13148 0.152826 -4.08213 -0.29259 -0.237472 -0.015441
12 1 1.52356 4.6359 0.181127 1.18436 1.40208 1.05812 0.569006 -4.02601 0.124935 -0.276909 0.244524
14 1 4.34915 4.42365 0.377238 -0.761965 1.11821 -1.53086 0.27214 -4.07739 0.215731 0.238903 -0.548671
22 1 1.54026 7.32431 0.208531 0.529166 1.27637 -0.648244 0.243825 -4.00765 -0.256512 0.0176971 0.632655
23 1 3.01689 5.92797 -1.19003 4.21453 0.286138 -0.65637 0.222924 -4.01022 -0.137963 -0.116646 -0.422701
24 1 4.35552 7.36387 0.278795 0.718611 1.41969 0.425215 0.107118 -4.00802 -0.551137 0.0745207 -0.132475
121 1 0.132435 5.82793 1.76245 -2.35864 3.10392 -0.471262 0.185967 -4.01196 0.0422319 0.517572 -0.141796
123 1 3.01618 5.86763 1.8578 1.00139 1.8653 -1.24788 0.255372 -4.09184 -0.366372 0.149877 0.0209878
16 1 7.14135 4.5226 0.35602 0.603539 0.154603 0.133915 0.154342 -4.03568 0.268798 0.00340545 -0.035317
25 1 5.70759 5.92495 -1.09963 -0.827089 1.1553 2.35682 0.320688 -4.11026 -0.0156514 -0.839154 -0.849977
26 1 7.1412 7.16975 0.229195 -0.0337704 2.62343 0.778117 4.99206 -3.92514 0.416755 0.976863 0.507946
125 1 5.74127 5.95799 1.80582 -0.136011 -2.75282 -0.154075 0.138124 -4.16576 0.231253 -0.00326375 0.135645
127 1 8.57446 5.88387 1.67026 -1.51658 -3.67076 0.00771245 0.365535 -4.06123 0.0947773 -0.00110075 0.594164
18 1 10.0587 4.47472 0.280271 2.01504 1.15568 0.108705 0.211887 -4.03585 -0.0218238 0.600728 -0.0929869
20 1 12.7939 4.54238 0.246592 -0.022531 3.00342 -1.17168 0.0601844 -4.0932 0.14599 0.307496 0.540353
28 1 10.1169 7.35391 0.36958 1.08986 -1.21663 1.80841 0.40395 -4.00778 -0.339936 -0.131511 0.0379108
29 1 11.4127 5.98723 -1.19982 1.3822 1.47477 -0.555896 0.0537052 -4.09079 -0.355734 -0.633523 -0.433554
30 1 12.8531 7.28188 0.341142 0.362699 -0.519128 0.486825 0.135578 -4.10393 -0.134781 0.642082 0.0652349
129 1 11.3642 5.90889 1.81298 -0.995542 1.01394 2.2528 0.109121 -4.08439 0.418215 0.184227 0.029937
32 1 1.48279 10.1923 0.211054 2.66336 -1.18469 0.933482 0.224074 -4.11887 0.409956 -0.485797 0.239165
34 1 4.32744 10.195 0.211974 -3.42019 -1.92301 1.41173 0.188782 -4.05091 0.0945318 -0.177221 0.271543
43 1 2.92107 11.628 -1.1952 2.17426 0.782241 3.50485 0.115611 -4.08469 -0.185873 -0.338251 -0.397544
133 1 2.87707 8.77788 1.79592 -1.44944 0.975575 0.710255 0.090554 -4.02951 0.27694 -0.382555 0.0136677
141 1 0.146359 11.6297 1.68122 -2.20193 -7.04944 -1.51669 0.309706 -4.09749 0.0994403 0.151298 0.221402
143 1 2.92416 11.521 1.77224 -0.572232 1.1909 1.77002 0.161794 -4.10496 -0.0576657 0.342679 -0.162154
36 1 7.17897 10.1662 0.326225 0.10168 3.47717 0.174941 0.164776 -3.96852 0.139254 -0.350243 0.355426
47 1 8.63625 11.4798 -1.11409 -1.46078 2.66256 0.234251 0.281494 -4.04864 -0.293594 -0.278061 -0.395253
135 1 5.71447 8.72482 1.87245 -0.880733 0.590278 -0.109653 0.285545 -4.04737 0.69994 0.22497 -0.313345
137 1 8.61908 8.74613 1.70723 -4.19951 1.4167 -2.48788 0.3579 -4.08116 -0.0959387 -0.373426 0.10414
145 1 5.78797 11.4174 1.77485 0.913579 -3.10787 0.676852 0.314239 -4.03584 -0.178742 0.357734 0.298105
147 1 8.63173 11.5707 1.87802 -2.52053 -2.66134 -2.016 0.187246 -4.06121 -0.115976 0.696459 -0.86191
37 1 8.64539 8.6808 -1.08411 -0.410704 1.96136 0.795798 0.361365 -4.11083 -0.469227 0.348696 -0.56003
41 1 14.1834 11.5242 -1.11803 -1.35835 -5.95404 3.83557 0.241491 -4.04599 -0.356102 0.446546 -0.164243
131 1 14.189 8.78043 1.89344 -1.59748 2.05417 3.03081 0.393186 -3.98676 0.85555 -0.330486 -0.168369
38 1 10.1092 10.2499 0.395002 0.647054 3.02786 -2.05404 0.49362 -4.05672 -0.962256 -0.627941 0.20105
39 1 11.3428 8.78317 -1.16502 2.80774 -0.622395 -1.00191 0.223427 -4.06597 0.700469 -0.228072 -0.0435358
40 1 12.8549 10.1114 0.41259 -1.75728 -0.634733 -0.267602 0.240139 -4.07088 -0.139044 -0.421137 -0.737605
139 1 11.4119 8.69776 1.85959 -0.425376 2.4171 -0.0430739 0.108449 -4.08126 0.100641 0.390086 -0.156692
149 1 11.4267 11.5446 1.86047 -0.904464 -0.906018 0.248794 0.174776 -4.05726 0.219914 0.118431 -0.416974
49 1 11.351 11.4979 -1.13623 -3.94296 -1.72452 -3.57845 0.143519 -4.02103 0.412787 0.139637 -0.239224
42 1 1.60077 12.9976 0.194421 -0.841826 -0.173751 0.753914 0.42263 -4.05742 -0.574514 0.0123332 0.281724
44 1 4.30049 12.9516 0.179107 -1.17519 0.372824 -0.13007 0.108247 -4.12642 0.597281 0.118476 0.324687
52 1 1.58776 15.7356 0.425886 -0.585983 1.26946 1.71295 0.671264 -3.96567 -0.60926 -0.0301807 -0.544852
54 1 4.38463 15.6552 0.275427 0.269637 0.959657 1.9614 0.269078 -4.07031 -0.424334 0.550732 -0.422464
153 1 2.9946 14.2978 1.78548 -3.03426 -0.361765 3.65674 0.165055 -3.99237 -0.330373 0.303674 0.174729
46 1 7.13899 12.8477 0.250622 -0.042375 -0.703018 -2.37022 0.22334 -4.01647 -0.243585 0.419172 0.274215
56 1 7.08452 15.7726 0.195667 0.19616 0.505449 -1.21975 0.24858 -4.07035 0.428815 -0.297213 0.350483
155 1 5.76502 14.3443 1.72809 -0.699273 2.50818 -2.71856 0.10311 -4.06509 -0.0834442 -0.403293 0.219167
157 1 8.53251 14.4644 1.81287 1.77519 1.9958 -4.01974 5.02271 -4.07583 -0.176225 -0.286387 0.0726597
57 1 8.49816 14.3386 -1.0759 5.27468 2.46447 0.151665 0.490798 -3.9694 -0.0654657 -0.211212 -0.694974
51 1 14.0057 14.3518 -1.21727 5.08997 3.62125 -2.07853 4.72935 -3.97538 1.59517 -0.109388 -0.290239
151 1 14.2009 14.4155 1.79394 -4.71089 2.01634 -0.85659 0.121291 -3.98526 -0.0748124 -0.538296 -0.22471
48 1 9.93985 13.0563 0.301731 2.86016 2.34417 0.701272 0.269586 -4.05331 0.32493 -0.713938 0.00645162
50 1 12.7181 12.9904 0.299006 0.559624 -1.36974 -0.820506 0.176535 -4.05856 0.192013 -0.358079 0.187717
58 1 9.99316 15.7186 0.28354 -3.3381 -1.51398 5.38263 0.169701 -4.06765 -0.0369407 0.323244 -0.0626289
60 1 12.7967 15.7437 0.289222 1.53771 1.90327 -4.70531 0.111394 -4.0592 -0.129648 0.205127 0.782689
159 1 11.3491 14.3264 1.84443 -0.265735 -1.65506 -3.98071 0.151307 -4.05689 0.522571 -0.00881094 -0.41174
62 1 1.43944 18.5161 0.325025 0.272627 0.831543 -0.200207 0.115766 -4.01589 0.232781 0.110565 -0.315918
64 1 4.38586 18.6552 0.329224 1.24428 1.0664 2.86252 5.11394 -4.00992 -0.239672 -0.625647 0.0196707
163 1 2.94245 17.1558 1.67987 0.341627 2.40032 0.506019 0.386799 -4.02167 0.604355 0.388512 0.198983
171 1 0.141802 19.9783 1.88189 -0.0590841 -1.37942 4.27312 0.168411 -4.11176 -0.48976 0.0163706 -0.252982
173 1 2.89555 19.9823 1.76336 0.785649 -1.23368 2.3689 0.145227 -4.0958 -0.312845 -0.421305 0.128806
66 1 7.24355 18.6165 0.328442 2.75597 -4.35103 0.905848 5.36969 -4.14021 -0.598323 -0.112768 0.0229505
67 1 8.57677 17.1461 -1.19343 -4.30079 -3.56988 1.31798 0.0495445 -4.13231 -0.0708089 -0.323528 0.259208
165 1 5.78304 17.093 1.71902 1.97311 1.99329 -0.167527 0.23796 -4.03186 -0.358023 0.285718 0.351128
167 1 8.56005 17.078 1.66562 1.63712 1.01306 -0.622391 4.61393 -4.07374 0.425465 -0.248277 0.77955
175 1 5.70632 20.007 1.78933 -3.42076 -2.85137 2.01629 0.132889 -4.04084 0.115135 0.139805 -0.23882
177 1 8.58858 20.043 1.995 -1.05917 0.80188 -0.731301 0.960571 -3.99277 -0.0977331 -0.754633 -1.13519
75 1 5.71713 19.9361 -1.20824 -4.53949 -0.9021 2.29786 0.127948 -4.05233 -0.255857 0.0179806 -0.42227
65 1 5.67248 17.193 -1.1701 -1.31158 -3.63153 -0.620776 0.329508 -4.0926 0.488664 -0.146725 0.214232
161 1 14.1852 17.2046 1.88713 -8.06951 -0.86164 0.0732044 0.211853 -4.11449 -0.137396 0.178614 -0.189737
68 1 9.83757 18.5862 0.354814 1.01621 0.95189 3.77626 0.505112 -4.09744 0.838115 0.741766 -0.316532
70 1 12.7582 18.5098 0.314328 -2.75978 -0.241021 0.901339 0.155444 -3.98473 0.396973 0.684208 -0.608605
169 1 11.4357 17.1907 1.77877 -0.050047 0.778513 1.36961 0.109296 -4.04622 -0.523321 -0.171669 0.421944
179 1 11.4548 19.9395 1.86424 0.478562 4.61523 -0.247094 0.245809 -4.07582 -0.336779 0.212306 -0.407437
69 1 11.3235 17.1806 -1.11189 2.51938 -0.439877 2.89062 0.211025 -4.05578 0.431794 -0.147308 -0.73322
71 1 14.189 20.001 -1.10522 -3.02828 1.71166 0.793185 0.297695 -3.93696 0.0515604 -0.899662 -0.0806386
61 1 14.2026 17.0274 -1.14555 -2.79754 0.110739 5.17862 0.290554 -4.00457 -0.0839084 -0.133212 0.346344
72 1 1.54936 21.3951 0.231623 2.3338 -3.4761 -2.56089 0.17308 -4.11847 -0.464231 -0.134949 -0.273173
74 1 4.24289 21.3195 0.361197 -0.775897 2.76848 -0.309503 0.358481 -4.16136 0.250286 -0.098822 -0.214159
82 1 1.5098 24.075 0.159186 -0.197856 1.54937 -4.05427 0.287608 -4.09872 -0.0202705 0.437869 0.231022
84 1 4.24694 24.1216 0.30554 1.75243 2.83472 -4.12876 0.389637 -4.00402 0.538006 0.181471 -0.337308
181 1 0.128659 22.763 1.72737 -3.03311 -1.67311 -0.629939 0.0464752 -4.07404 0.160515 -0.458834 -0.249765
183 1 2.89382 22.7594 1.68502 0.572942 -1.11899 -0.365379 0.154436 -4.10341 -0.0690535 0.0802402 0.364843
76 1 7.14056 21.2635 0.279387 -0.691281 0.193514 1.05787 0.36512 -3.96869 -0.0846324 0.599771 0.259529
86 1 7.25436 24.2668 0.282006 -2.43118 3.29649 -1.15762 5.46968 -3.94634 0.0780269 -0.403852 -0.321438
185 1 5.72509 22.8979 1.69008 3.67767 -2.14848 -3.35625 0.465943 -4.06845 0.0990697 -1.0561 -0.132967
187 1 8.47118 22.692 1.86091 -0.732136 -0.532565 -1.73565 0.575038 -4.06027 0.265216 0.125195 -0.547073
78 1 9.92402 21.3232 0.224062 -2.14879 -1.2859 1.20999 0.216234 -4.07157 0.168164 -0.0695663 1.03096
80 1 12.7264 21.3466 0.298782 -2.02506 0.894117 1.33119 0.06366 -4.01816 0.728801 0.194391 0.0178046
88 1 9.99398 24.1702 0.322639 -1.34963 2.3224 -3.76156 0.197641 -4.08147 -0.62453 0.2251 0.121088
90 1 12.8226 24.1983 0.191086 -3.32555 -1.34099 0.789537 0.17786 -4.02662 -0.521529 0.0335026 0.317197
189 1 11.404 22.6532 1.70935 1.1462 2.87937 3.03823 0.284664 -3.97927 0.194406 0.443577 0.180627
92 1 1.49183 27.0716 0.268741 -1.55268 0.823337 -0.21304 0.0684979 -4.0363 0.0238208 -0.1278 0.25866
93 1 2.95679 25.6072 -1.19813 -2.98218 -1.24306 2.03838 0.165211 -4.06521 0.100839 0.415984 -0.419992
94 1 4.31233 27.0701 0.426118 -2.42482 -0.468398 -1.32983 0.653215 -3.99229 -0.342475 0.0704489 -0.394463
193 1 2.87926 25.4829 1.69977 -1.0862 0.475835 1.41936 0.40639 -4.00218 0.337366 0.487782 0.223179
5 1 5.72241 28.2956 -1.13741 2.69086 -0.906142 0.0342517 0.56413 -4.0447 0.0881379 0.436845 -0.675622
107 1 8.62684 28.3911 1.80654 1.62718 -2.83475 -3.52836 0.292481 -4.10262 -0.0274645 0.986973 -0.479862
96 1 7.19496 27.0059 0.270949 3.8854 -2.09663 -3.2721 0.0374197 -4.09267 -0.162576 -0.279648 0.131215
195 1 5.7699 25.6353 1.71473 -1.7019 -1.17403 1.74296 0.12745 -4.02808 0.207899 -0.0490871 0.606114
197 1 8.65402 25.6862 1.76732 -0.592902 -0.620959 0.00800132 0.317015 -4.09252 -0.336917 -0.681637 0.210402
7 1 8.51249 28.4072 -1.11641 0.305773 -1.36188 3.04787 0.328859 -4.03095 -0.211688 -0.0611042 -0.634628
191 1 14.1954 25.5315 1.72392 -0.0885336 -4.4938 -0.48509 0.20698 -3.97388 0.656187 0.217157 -0.421592
98 1 9.85719 27.0277 0.22688 2.60699 4.64685 0.62246 0.391734 -4.13558 0.512091 -0.240215 -0.232193
100 1 12.8111 27.1397 0.281536 0.688756 2.41483 -3.36628 0.109908 -4.04444 0.165436 -0.487135 -0.255716
199 1 11.3947 25.7747 1.76889 -1.77748 -0.753815 0.440887 0.579655 -3.99886 0.684864 -0.372613 -0.0771538
99 1 11.3966 25.6653 -1.15561 -3.11862 -0.640777 0.494149 0.137511 -4.06813 -0.162756 0.139766 0.202546
102 1 1.43258 1.58866 3.29053 7.38627 -3.29026 1.48818 0.293397 -4.0848 0.476966 0.367173 -0.182
104 1 4.40471 1.70471 3.20118 -2.62904 -0.431866 -2.50035 0.22669 -4.06017 -0.683537 0.241948 -0.634307
202 1 1.64591 1.56967 6.13766 2.02744 3.5456 -1.59179 4.485 -4.06114 -0.882969 0.927166 0.0506851
203 1 2.94499 0.259696 4.71558 -1.3304 -3.48688 0.0854903 0.127531 -4.09762 0.407996 0.1537 -0.160357
204 1 4.18458 1.68524 6.21806 -0.935437 1.48785 2.63114 4.39455 -4.05334 1.42525 -0.292438 0.0474222
213 1 2.88677 3.08084 4.68166 -2.28947 -0.845795 -1.07431 0.345332 -4.09412 0.124107 -0.0290655 -0.0289795
106 1 7.15632 1.63052 3.18626 0.736671 -1.16949 0.0239501 0.233672 -4.12398 0.329314 0.252276 1.06197
205 1 5.64874 0.299036 4.58247 2.33469 0.995414 0.291621 0.556372 -3.98268 0.532506 -0.488478 1.49903
206 1 7.2548 1.68985 6.17993 -1.46106 -1.55409 1.7364 0.351551 -4.01907 -0.233295 -0.726363 -0.331127
207 1 8.58474 0.236208 4.79065 1.31666 3.04051 1.49325 0.145633 -4.03306 0.276992 -0.126541 -0.68039
215 1 5.78167 2.95842 4.84249 -1.49422 -2.50707 3.51511 0.510446 -4.03779 -0.484757 0.418443 -0.543242
217 1 8.60442 3.0921 4.7385 -1.80041 2.92479 -5.24384 0.121147 -4.07605 -0.189176 -0.304595 0.365304
201 1 14.2143 0.277593 4.79424 -0.76465 1.66164 -3.30675 0.313374 -4.08319 -0.166545 -0.205582 -0.0065911
211 1 14.1953 3.09372 4.84755 0.131749 -3.47244 0.658656 0.259322 -4.04647 0.252634 -0.571463 -0.273372
108 1 9.98023 1.81548 3.31188 1.78008 -0.0382443 0.481447 5.42202 -3.98477 0.210042 -1.22443 -0.2062
110 1 12.7567 1.63776 3.22286 0.143622 0.261967 0.471904 0.158372 -3.96943 0.349122 0.0317882 0.595598
208 1 9.93587 1.5992 6.26786 -2.11946 3.54369 -4.60115 0.12428 -4.15788 0.549821 0.540692 0.0295159
210 1 12.7168 1.62492 6.29583 1.93469 -2.84729 3.21644 0.35324 -4.0259 0.210302 0.0105797 -0.548549
219 1 11.4042 3.08595 4.76301 2.96876 -3.6 -0.306264 0.0653452 -4.01743 -0.279521 -0.0384114 0.154262
112 1 1.47335 4.44722 3.37313 -2.08488 5.53109 1.88305 0.232119 -4.01231 0.266601 0.932955 -0.0907288
114 1 4.45714 4.53943 3.38538 0.408107 -1.46821 1.68028 0.434813 -4.08391 -0.501852 -0.796572 0.0106092
122 1 1.5387 7.19477 3.34072 -2.178 2.10286 -1.52883 0.264912 -3.97049 -0.256484 0.241 -0.438098
124 1 4.30599 7.3213 3.31835 -1.70609 -0.894295 0.386355 0.157258 -3.98324 0.267679 0.287866 0.252096
212 1 1.5107 4.56417 6.27395 1.71349 1.1107 -0.37813 0.379252 -4.08425 0.454866 -0.446603 -0.303793
214 1 4.35594 4.34938 6.29182 -3.60792 0.888428 1.10906 4.77718 -4.06645 0.189455 0.404161 -0.34117
222 1 1.54559 7.23945 6.25279 2.60978 -1.28947 -2.65909 0.156156 -4.09576 -0.313565 -0.299976 -0.0259604
223 1 3.00176 5.86832 4.80194 -2.9209 -3.41332 -1.19244 0.119679 -4.09016 -0.056466 -0.23901 0.0675236
224 1 4.45542 7.31972 6.28819 2.28078 -2.16034 3.83898 0.294238 -4.03492 -0.954101 0.482466 -0.313611
116 1 7.08446 4.43511 3.31877 -0.717838 -0.661302 1.69127 5.10376 -4.08363 0.490388 0.447802 -0.151853
126 1 7.33953 7.39572 3.29803 1.37971 -3.46356 0.697126 0.488448 -3.97449 -0.355097 -0.541656 -0.195661
216 1 7.15048 4.45322 6.13906 0.663868 1.20315 1.59813 0.329209 -4.12015 0.295632 0.685193 0.248065
225 1 5.7941 6.05956 4.71806 0.299468 -1.75276 -1.18853 0.61775 -4.03316 0.0989345 -0.479178 0.369094
226 1 7.22143 7.27669 6.25553 -1.92098 2.73055 -2.00716 0.110277 -4.1207 -0.113108 0.368009 0.269886
227 1 8.61587 5.8789 4.72454 -0.532809 -0.371899 0.126652 0.130618 -4.03514 -0.08728 -0.33238 -0.113793
221 1 14.1524 5.86373 4.8158 0.796103 -1.93786 -0.0692733 0.125766 -4.06306 0.325666 0.0312816 -0.578454
118 1 10.0291 4.4796 3.2823 -2.00022 0.251406 -1.34662 0.100557 -4.11474 -0.0421133 0.0649643 -0.202754
120 1 12.7727 4.51546 3.21939 -2.93314 -0.0391201 0.674702 0.110487 -4.08952 0.30317 -0.142175 0.679213
128 1 10.0124 7.32217 3.23437 -2.7644 2.28321 3.1472 0.125649 -4.09655 -0.627283 0.201293 0.440369
130 1 12.7448 7.26336 3.24018 -1.8326 -3.86476 -3.53257 0.159479 -4.09904 0.507592 -0.23619 0.191543
218 1 9.92391 4.44006 6.2498 2.54663 2.02038 1.45237 0.0879181 -4.10603 0.188028 0.256284 0.211776
220 1 12.7806 4.44772 6.24172 -0.879614 -1.25736 1.20844 0.0628823 -3.98417 -0.285252 0.138431 0.443852
228 1 9.92162 7.27115 6.3333 0.0778168 -0.255412 1.79302 0.255622 -4.08145 0.310208 0.169324 0.236339
229 1 11.2652 5.91426 4.79591 0.58398 1.74186 -1.1864 0.29903 -4.08252 1.06715 0.153662 0.201028
230 1 12.8446 7.35538 6.16805 2.31232 0.678649 1.21522 0.273608 -4.04908 -0.536698 -0.779588 0.386716
132 1 1.49806 10.2454 3.20106 0.926583 1.77752 2.20689 0.200711 -4.02794 0.205491 -0.521801 0.304413
134 1 4.33421 10.2257 3.33602 -1.95039 -2.01599 -1.69927 0.275111 -4.01745 0.172796 -0.428694 0.40608
232 1 1.56015 10.1641 6.269 2.12226 0.0705619 -0.681687 0.208427 -4.09537 -0.649884 0.131858 -0.186239
233 1 2.86938 8.7146 4.81835 -0.683116 0.194601 5.31636 0.144495 -4.01868 0.625434 -0.165945 -0.262058
234 1 4.30212 10.2221 6.24776 -0.621179 0.157015 -0.123602 5.26332 -4.06837 0.496939 -0.492765 0.178485
241 1 0.149986 11.5192 4.71946 -2.41095 0.904273 -0.0212207 0.0916661 -4.06633 0.0018274 0.0452816 -0.0315569
243 1 2.87755 11.525 4.6675 -0.234391 0.744033 0.670144 0.240743 -4.03733 0.0717627 0.016554 0.216492
136 1 7.34978 10.1327 3.31373 0.629619 0.98562 1.20116 4.85897 -4.08917 -0.606493 0.13662 -0.297429
235 1 5.87066 8.81598 4.69109 0.465343 -1.43871 1.4062 0.37554 -4.06673 -0.593754 -0.783846 0.15296
236 1 7.13391 10.1574 6.27496 2.36863 -0.429749 -0.449581 0.25875 -4.11639 -0.376609 -0.0820841 0.304575
237 1 8.63235 8.75913 4.91084 2.56455 0.935182 0.542097 0.358953 -4.12412 -0.291563 -0.245029 -0.262623
245 1 5.87987 11.5851 4.7548 0.240801 -0.541356 -0.243051 0.423324 -4.05453 -0.280572 -0.00798859 -0.00494675
247 1 8.6244 11.498 4.86247 0.432483 -3.51449 2.45946 0.193642 -4.1226 -0.173164 0.429922 -0.2914
231 1 14.2058 8.74973 4.71845 -0.187028 1.52542 1.17023 0.0858729 -4.11049 0.302273 -0.199284 0.11937
138 1 9.92992 10.142 3.24765 -1.64946 -2.47072 4.24093 5.09833 -4.13974 0.675344 -0.30496 0.724867
140 1 12.8378 10.2224 3.25571 -3.06779 0.590986 0.953237 0.191259 -4.11834 -0.656249 -0.338694 -0.0481828
238 1 10.0462 10.0877 6.27428 4.00462 1.03455 -0.403308 0.14018 -4.02369 0.325961 0.298468 0.457251
239 1 11.364 8.67474 4.72572 1.07823 -1.10089 5.00007 0.0977312 -4.09572 0.1861 0.0323697 -0.0789672
240 1 12.788 10.0949 6.09896 0.473313 1.12475 -2.36237 0.369989 -3.98531 0.0589453 0.361026 0.990754
249 1 11.3994 11.5636 4.85183 0.00818624 4.09037 -1.73351 0.244116 -4.07733 -0.358023 -0.13887 -0.233654
142 1 1.52181 13.0509 3.35722 -1.28477 -4.17543 2.9049 0.346777 -4.11097 0.102185 -0.29723 -0.55556
144 1 4.29805 12.8216 3.19081 1.81958 -2.20134 0.0142737 4.76509 -4.0484 0.873862 0.566382 0.246491
152 1 1.51339 15.8576 3.33328 -0.669006 2.84052 -0.820189 5.18617 -4.15171 0.361503 -0.809848 -0.344372
154 1 4.25725 15.7179 3.24792 2.46855 -1.35996 -1.82568 0.305296 -4.0492 0.933398 0.600792 -0.496402
242 1 1.53992 12.9165 6.21717 0.280113 3.4737 -1.1283 0.118355 -4.12872 -0.0345047 -0.0714008 -0.142678
244 1 4.24982 12.7782 6.24382 2.14938 -0.0921022 -0.749942 5.1747 -4.07329 0.152726 0.331414 -0.248229
251 1 0.128475 14.4623 4.81813 2.68999 -0.1114 0.508103 0.222919 -4.04981 -0.0221351 -0.0965767 -0.224337
252 1 1.63436 15.7834 6.1295 -3.12021 0.366244 0.726554 0.461792 -4.0056 -0.131381 -0.293573 0.529766
253 1 3.02926 14.3678 4.79287 0.643288 -2.70259 -2.00417 0.353098 -4.02156 -0.360086 -0.402161 -0.39712
254 1 4.32401 15.7314 6.33758 -3.29084 -1.84392 -1.68306 0.273702 -4.02432 0.0889909 0.0237999 -0.485255
146 1 7.13468 12.9886 3.2623 1.04428 0.1527 -2.62964 0.131737 -3.92419 0.891875 -0.677273 0.311404
156 1 7.1141 15.8395 3.28925 -5.45427 -4.00032 2.42238 0.290037 -4.04453 -0.144506 -0.0970734 -0.153318
246 1 7.17912 12.9922 6.2885 0.991656 -1.68864 -0.448699 0.136756 -4.01791 0.748802 -0.277901 -0.0851214
255 1 5.79332 14.3612 4.70992 0.949383 2.2935 -3.25327 0.177284 -4.08592 -0.563018 -0.109641 0.505032
256 1 7.19239 15.8423 6.15115 -0.861153 0.781607 -0.146585 0.373171 -4.05629 0.11595 -0.576744 0.159707
257 1 8.60857 14.4287 4.80935 -2.00567 3.54744 2.76289 0.0729238 -4.05809 -0.649618 -0.501195 -0.700724
148 1 10.0789 12.8625 3.35971 2.53119 -0.204599 1.59625 0.297369 -4.02192 -0.610412 0.540311 -0.00376088
150 1 12.8144 12.9078 3.32582 0.842405 -1.04171 -0.584461 0.15655 -4.12142 0.702272 0.391972 -0.0503524
158 1 10.0599 15.8093 3.34267 1.95172 -4.28031 -2.67566 0.252926 -4.02968 0.115059 -0.374819 -0.120067
160 1 12.7974 15.8078 3.24315 2.05154 2.79304 -0.0709358 0.18898 -4.06575 -0.0932238 0.0125163 0.852963
248 1 10.001 13.0598 6.29347 1.15591 3.93167 -3.97146 0.326869 -4.03141 0.540076 0.230356 -0.25927
250 1 12.9049 12.9601 6.19641 1.45982 -1.9964 -1.75047 0.25793 -4.08376 -0.309475 -0.551907 0.458742
258 1 10.0849 15.781 6.25542 3.15439 -2.57917 -3.22034 5.29686 -4.11225 -0.437917 -0.587356 0.334386
259 1 11.5154 14.2983 4.75324 2.36546 0.76793 -0.871017 0.266643 -4.07822 -0.584648 0.310396 0.147111
260 1 12.7221 15.7462 6.28314 1.07372 0.97037 -2.70378 0.528408 -4.00246 0.93102 -0.255945 0.0116713
162 1 1.61205 18.4318 3.27506 0.103087 0.473685 0.329909 4.90055 -4.06304 -0.328869 0.871239 0.443114
164 1 4.41893 18.6151 3.16159 -0.211573 3.22505 -5.20284 0.340833 -4.04647 -0.640536 -0.678003 0.199932
262 1 1.64124 18.6991 6.23254 -1.57751 0.894061 -4.43727 0.343324 -4.09376 -0.680026 -0.717132 -0.0257218
263 1 3.02324 17.1738 4.73997 -2.37006 -0.133771 0.32695 0.260509 -4.08677 -0.248961 0.505099 0.288466
264 1 4.25569 18.5351 6.37622 2.99979 1.41468 -0.253245 0.479504 -4.05153 0.620084 0.105999 -0.294722
271 1 0.239882 19.931 4.64879 -2.9132 -1.24747 -1.34561 0.589592 -4.05834 -0.377182 0.139043 -0.042403
273 1 3.06119 20.0027 4.75596 0.40391 -0.0741893 3.19324 0.356979 -4.07955 0.00408881 0.321218 -0.181193
166 1 7.16241 18.5363 3.25686 0.698547 0.150344 -2.49931 0.172611 -4.13214 -0.287745 0.0162888 -0.451061
265 1 5.71847 17.1429 4.87453 -1.6126 -0.82668 -3.54668 0.423561 -4.07984 -0.358116 0.192744 -0.463519
266 1 7.25348 18.553 6.15239 1.95445 3.37989 -0.145865 0.540929 -4.00043 -0.739298 -0.224382 0.0211788
267 1 8.63962 17.1234 4.68171 1.62128 1.24999 -1.44411 0.260519 -4.03345 -0.207463 0.00844584 0.487201
275 1 5.66392 19.9514 4.7622 0.0670137 -1.38317 -3.87798 0.299501 -4.0723 0.283574 0.190644 0.384477
277 1 8.52362 20.0544 4.75158 0.898333 -0.0775842 -0.479706 0.252881 -4.10495 0.487557 0.308722 0.071909
261 1 14.1769 17.1487 4.83186 3.22524 -0.724689 1.23685 0.352775 -4.1047 0.387804 -0.0201986 -0.252725
168 1 9.9888 18.5753 3.2993 -3.61858 0.233632 -1.83299 0.201467 -4.03984 -0.344786 -0.670189 -0.203767
170 1 12.8038 18.6463 3.40429 0.900172 4.64776 -2.52583 0.324097 -4.07937 0.223174 -0.826971 -0.50815
268 1 9.90461 18.5053 6.35098 4.57801 -0.241298 0.328247 4.49337 -4.02516 0.0997746 0.382116 -0.835482
269 1 11.4148 17.1891 4.93676 1.22914 3.37173 -1.05524 0.383888 -4.04358 0.611133 0.391543 -0.807503
270 1 12.909 18.7314 6.23775 -1.75346 -1.91228 -0.862528 0.529558 -4.04788 -0.479906 -0.256408 0.388342
279 1 11.3598 20.0486 4.72992 2.0114 -4.45816 0.994583 0.260597 -4.02355 -0.342296 -0.365751 0.654297
172 1 1.47279 21.4257 3.30237 2.33301 -0.225112 2.95214 0.271257 -4.07474 0.75052 0.088174 -0.051719
174 1 4.32705 21.4567 3.15065 -1.27528 -0.710527 -1.51037 0.268667 -4.0787 0.285577 -0.174217 -0.0777394
182 1 1.5749 24.1646 3.25525 -0.784188 -3.79054 -2.16947 0.0646652 -4.11271 -0.574914 0.516172 0.136354
184 1 4.3073 24.238 3.213 -0.587332 0.565944 -1.32797 0.14359 -4.06277 0.251488 -0.393822 -0.0828526
272 1 1.50093 21.4332 6.15816 -1.3891 0.701157 2.48604 0.364683 -4.11539 0.441903 -0.423938 0.634556
274 1 4.4257 21.4489 6.31818 2.59471 -0.91757 -0.537123 0.260968 -4.01388 0.00492194 -0.270178 -0.680228
281 1 0.183488 22.7914 4.81512 -2.74019 0.616667 0.622568 0.152136 -3.99706 -0.50536 0.427088 -0.480078
282 1 1.52472 24.1909 6.32603 -1.23117 0.365724 -0.651941 0.160031 -4.07879 1.00121 0.251261 -0.300629
283 1 2.92311 22.8102 4.83272 1.18139 2.06881 4.32688 0.172045 -4.0193 0.962372 0.134527 -0.116218
284 1 4.42474 24.2671 6.29394 -2.88227 1.45219 3.65201 0.163535 -4.01079 -0.151655 -0.667567 -0.124241
176 1 7.06694 21.3141 3.32286 -3.95137 -1.5893 -1.01736 0.389919 -4.05458 0.207588 0.100208 -0.814284
186 1 7.17879 24.1447 3.1639 2.78581 2.06017 1.88695 0.189079 -3.98237 0.0828579 0.724023 0.410241
276 1 7.10716 21.4372 6.30736 2.60993 -1.18025 -2.38511 0.240273 -4.04074 -0.0625693 -0.423186 0.0348234
285 1 5.85589 22.7635 4.62869 1.31531 1.02106 -0.50399 0.534811 -4.00669 -0.989779 1.23795 1.0721
286 1 7.16944 24.2408 6.28797 1.08031 -1.08147 0.839848 0.277066 -4.03185 -0.185524 -0.187849 -0.772268
287 1 8.6565 22.7436 4.67406 2.42 3.87829 -0.705154 4.74761 -4.18873 -0.339931 0.365532 0.54762
178 1 9.99102 21.4199 3.21767 -1.13098 -1.50552 3.15931 0.239907 -4.07334 0.517682 -0.31502 -0.1787
180 1 12.8404 21.4228 3.34839 -0.471497 0.0061306 0.269058 0.289907 -4.18282 -0.292319 0.378333 0.39541
188 1 10.0407 24.0693 3.11321 -1.30348 -2.27273 0.479064 4.65177 -3.96481 -0.359185 1.21175 0.0464167
190 1 12.925 24.1389 3.2278 -1.55903 -2.12372 1.13416 0.399855 -3.98611 -0.980265 0.0789866 0.180437
278 1 9.94955 21.4304 6.35772 1.38589 -0.978514 1.96516 0.320805 -3.98939 0.0515299 -0.397556 -0.662604
280 1 12.8739 21.3633 6.17203 1.61778 1.13426 1.57654 0.289987 -4.13037 -0.230528 0.00645213 0.32667
288 1 10.0194 24.1956 6.33854 2.68269 2.22443 1.78439 0.381381 -4.00863 -0.784446 -0.168322 0.0564542
289 1 11.3072 22.8471 4.75687 -3.96248 4.07387 -0.259648 0.487773 -4.09304 0.152527 -0.171605 0.524188
290 1 12.8777 24.1232 6.22723 1.06046 -1.98762 3.24564 0.236236 -4.09061 -0.538261 0.15836 0.204139
192 1 1.54582 26.9795 3.28759 0.832332 -0.820942 0.130328 0.145608 -4.13884 -0.172918 -0.0437272 0.00421884
194 1 4.33343 27.1078 3.23113 -1.61671 -3.20912 1.28134 0.249725 -4.05778 -0.267008 -0.620793 -0.466692
291 1 0.123486 25.6243 4.87258 -1.91934 -0.395923 -0.219087 0.373665 -3.99913 -0.0490907 -0.138238 -0.752616
292 1 1.58125 27.1181 6.14393 0.521729 -0.104332 -0.21211 0.262936 -4.12293 0.198364 -0.61838 0.117735
293 1 3.0799 25.6086 4.72933 2.80973 1.17343 -0.298043 0.379763 -3.99516 -1.08433 -0.0553553 0.655031
294 1 4.2495 27.1204 6.21989 -1.17778 2.9951 1.58236 0.250986 -4.04306 0.434555 -0.251994 -0.242095
196 1 7.3038 27.0489 3.37064 3.37805 -2.98627 4.17109 4.75924 -4.00844 -0.981035 0.243522 -0.70062
295 1 5.73558 25.636 4.70879 2.43808 0.681994 -1.51506 0.155544 -4.08534 0.593994 -0.243982 0.428811
296 1 7.17419 27.0665 6.13391 0.309675 6.50899 -1.89168 0.242977 -3.97177 -0.215515 0.757539 -0.202464
297 1 8.56397 25.5256 4.75455 -0.134748 1.31643 -3.31811 0.344332 -4.09212 1.14597 0.144873 -0.475702
209 1 11.3537 28.3011 4.82053 -0.393176 -1.47754 0.78913 5.67193 -3.96375 0.552346 0.561711 -0.915762
198 1 9.95313 27.0869 3.1701 0.689763 -0.698924 -1.31982 0.298828 -3.91041 0.616123 -0.155159 1.0168
200 1 13.0099 27.0067 3.22317 5.30296 -0.270392 0.651806 5.30984 -3.99082 -0.853962 0.263902 0.413944
298 1 9.9521 27.1594 6.29656 1.28797 -2.74568 -4.13594 0.325467 -4.05466 -0.44578 -0.777558 0.530921
299 1 11.357 25.6421 4.79646 0.613569 6.18239 1.53807 5.96563 -3.99758 0.284201 0.0938921 -0.565408
300 1 12.9347 27.0657 6.28893 -0.577292 -1.28953 -3.83829 0.297002 -4.06573 -1.00409 -0.290467 0.0232003
301 1 0.190771 0.330155 7.61094 0.5675 -0.168496 -2.46061 4.75775 -4.1144 -0.0855926 -0.700893 0.131622
302 1 1.52998 1.64637 9.35874 -1.42736 -3.15682 0.972455 0.285189 -4.06846 -0.0181167 -0.00407857 -0.499771
303 1 2.87995 0.257353 7.76257 0.341516 -0.0404191 -2.60214 0.182 -4.09737 0.081219 -0.435036 0.433089
304 1 4.29008 1.6221 9.20237 -4.04083 -0.468429 4.02966 0.151513 -4.02539 0.0454909 0.703301 0.303684
311 1 0.149724 2.85167 7.75439 -1.74976 0.28104 0.763369 5.04062 -4.0126 -0.406811 1.46423 -0.262901
313 1 2.89377 2.99568 7.64271 0.148637 -0.416692 -0.495992 0.339714 -3.99212 -0.233195 0.257301 1.14805
403 1 2.9679 0.297361 10.7697 0.394335 0.406084 2.23505 0.174644 -4.07491 0.26725 -0.819798 -0.0792604
411 1 0.156785 3.04543 10.7251 0.660313 -0.658618 -1.38298 0.137696 -4.09538 -0.524149 0.32809 -0.100468
413 1 2.87494 3.0559 10.8336 -3.05234 -3.9865 -0.430171 0.329746 -4.11582 0.265996 0.203071 -0.4692
305 1 5.63949 0.272746 7.75832 -2.6762 0.601797 -1.53878 0.271924 -3.98029 0.814995 0.444935 -0.433776
306 1 7.16827 1.7968 9.2313 -0.497955 1.38302 -0.554626 0.424253 -3.94709 -0.208883 -0.686162 0.427741
307 1 8.54451 0.339894 7.80204 2.06573 -1.47317 -0.377265 0.315977 -4.08425 0.0372656 -0.717251 0.209782
315 1 5.88369 2.98404 7.67592 0.746495 3.22544 0.384377 0.621295 -4.04523 -1.00788 0.508418 0.49341