ITEM: TIMESTEP
40500
ITEM: NUMBER OF ATOMS
2000
ITEM: BOX BOUNDS pp pp pp
1.0838953229856951e-01 1.4221610467701321e+01
2.1677906459713903e-01 2.8443220935402643e+01
-7.0961276657334493e-01 5.8029612766572910e+01
ITEM: ATOMS id type x y z vx vy vz c_csym c_peratom fx fy fz
2 1 1.62332 1.66863 0.766372 -0.282889 -3.25185 -0.636516 0.277574 -4.09075 -0.393405 0.173282 -0.597576
4 1 4.35789 1.61575 0.695066 0.990702 -5.33602 3.45801 0.222011 -4.12592 0.269386 0.311042 0.470261
11 1 0.115605 3.14255 -0.662168 0.617832 -0.194419 3.50607 0.207906 -4.05008 -0.295944 -0.0621091 -0.256974
101 1 0.126621 0.284403 2.20056 -1.57173 1.46596 2.1275 0.151725 -4.0984 -0.127019 -0.124015 -0.391388
103 1 2.85007 0.270771 2.25945 0.287695 0.367304 -1.8153 0.238337 -3.99176 0.701605 0.279459 -0.345267
111 1 0.168447 3.08626 2.2267 -2.2925 0.592843 0.179022 0.130757 -4.13106 -0.227099 0.0545548 -0.378168
113 1 2.87763 3.13123 2.28153 -1.71434 2.42111 -1.1208 0.327909 -4.06604 0.0244813 0.373495 -0.0774612
13 1 2.94284 3.10367 -0.690817 -0.0706192 -1.95523 0.774801 0.0720755 -4.01905 -0.113058 0.0854999 -0.00164796
6 1 7.17995 1.58532 0.759695 -1.53139 -1.81767 -2.43971 0.225858 -4.0897 0.164786 0.701913 0.24611
17 1 8.63608 3.25517 -0.641227 -1.24355 -0.0988133 -0.860341 4.95248 -4.05347 -0.701483 -0.852422 -0.224317
105 1 5.90739 0.22905 2.22814 0.812795 -1.48127 -4.16198 0.293907 -4.07278 -0.666765 -0.0976355 0.133676
115 1 5.79048 3.13764 2.21357 -0.932742 0.818202 0.0439582 0.180129 -4.03941 -0.0982072 -0.426205 0.139904
117 1 8.60233 3.08029 2.29297 0.475293 0.415756 -1.302 0.159624 -4.05278 -0.35541 0.18136 -0.817502
15 1 5.86915 3.09703 -0.653178 -1.1078 -3.23994 -0.243916 0.28963 -4.00223 -0.405931 0.267107 -0.675498
8 1 9.98472 1.71462 0.645783 1.02028 2.64764 -1.65962 0.379092 -4.04551 -0.627859 0.0678541 1.274
9 1 11.3244 0.287262 -0.610456 -0.628437 1.37052 0.162777 0.386306 -4.04122 1.05163 -0.483461 -0.446348
10 1 12.8557 1.68831 0.69559 -0.261261 2.58464 0.684826 0.131856 -4.02474 -0.036177 0.560103 0.520244
109 1 11.3921 0.306018 2.19859 4.17545 -4.26001 3.01885 0.167041 -4.07336 -0.283135 -0.458663 0.188814
119 1 11.4562 3.11085 2.14517 -0.877516 0.612354 1.13148 0.150597 -4.10076 -0.512151 -0.0992829 -0.171349
12 1 1.52356 4.6359 0.665416 1.18436 1.40208 1.05812 0.561022 -4.04511 -0.202821 -0.505265 0.251411
14 1 4.34915 4.42365 0.858192 -0.761965 1.11821 -1.53086 0.270074 -4.09217 0.0221738 0.35482 -0.716293
22 1 1.54026 7.32431 0.692354 0.529166 1.27637 -0.648244 0.238658 -4.02959 0.146219 -0.0317514 1.09961
23 1 3.01689 5.92797 -0.682424 4.21453 0.286138 -0.65637 0.22191 -4.03267 -0.295972 -0.24812 0.100009
24 1 4.35552 7.36387 0.761423 0.718611 1.41969 0.425215 0.105795 -4.02204 -0.226909 0.0506471 0.209447
121 1 0.132435 5.82793 2.21985 -2.35864 3.10392 -0.471262 0.183947 -4.02929 0.303145 0.548462 -0.374329
123 1 3.01618 5.86763 2.31357 1.00139 1.8653 -1.24788 0.253161 -4.11738 -0.266047 0.112289 -0.0753035
16 1 7.14135 4.5226 0.837335 0.603539 0.154603 0.133915 0.151718 -4.05116 0.0638352 -0.52304 -0.222577
25 1 5.70759 5.92495 -0.593561 -0.827089 1.1553 2.35682 0.314934 -4.1301 -0.0204225 -0.670781 -0.510544
26 1 7.1412 7.16975 0.712666 -0.0337704 2.62343 0.778117 4.92849 -3.93269 0.0331342 1.00333 0.376201
125 1 5.74127 5.95799 2.26248 -0.136011 -2.75282 -0.154075 0.137848 -4.18511 0.330252 -0.0224889 -0.050415
127 1 8.57446 5.88387 2.12923 -1.51658 -3.67076 0.00771245 0.356457 -4.0833 0.393165 -0.297254 0.935556
18 1 10.0587 4.47472 0.762873 2.01504 1.15568 0.108705 0.209821 -4.04925 -0.165642 0.282287 -0.142917
20 1 12.7939 4.54238 0.729768 -0.022531 3.00342 -1.17168 0.0590676 -4.1111 0.107197 -0.102167 0.293468
28 1 10.1169 7.35391 0.850664 1.08986 -1.21663 1.80841 0.399909 -4.02024 -0.459305 -0.600576 -0.456292
29 1 11.4127 5.98723 -0.692044 1.3822 1.47477 -0.555896 0.0535126 -4.11191 -0.63874 -0.154079 -0.447079
30 1 12.8531 7.28188 0.82271 0.362699 -0.519128 0.486825 0.134757 -4.12768 0.0243302 0.271593 -0.250614
129 1 11.3642 5.90889 2.26951 -0.995542 1.01394 2.2528 0.107991 -4.09955 0.016235 0.216109 -0.351137
32 1 1.48279 10.1923 0.694834 2.66336 -1.18469 0.933482 0.218813 -4.12714 0.141928 -0.505999 0.346154
34 1 4.32744 10.195 0.695739 -3.42019 -1.92301 1.41173 0.185415 -4.06776 -0.199029 -0.307561 0.106717
43 1 2.92107 11.628 -0.687505 2.17426 0.782241 3.50485 0.11365 -4.0936 0.114955 -0.662341 -0.163439
133 1 2.87707 8.77788 2.25275 -1.44944 0.975575 0.710255 0.0898726 -4.05898 0.30799 -0.132221 -0.122156
141 1 0.146359 11.6297 2.14 -2.20193 -7.04944 -1.51669 0.302185 -4.10999 0.0197551 0.0715597 0.707819
143 1 2.92416 11.521 2.22947 -0.572232 1.1909 1.77002 0.16017 -4.11697 -0.0759298 -0.152575 -0.517175
36 1 7.17897 10.1662 0.808046 0.10168 3.47717 0.174941 0.162612 -3.98478 0.269421 0.0014658 0.304602
47 1 8.63625 11.4798 -0.607774 -1.46078 2.66256 0.234251 0.277169 -4.06439 -0.46833 0.217881 -0.342528
135 1 5.71447 8.72482 2.32797 -0.880733 0.590278 -0.109653 0.281474 -4.07449 0.259949 0.0500039 -0.337069
137 1 8.61908 8.74613 2.16557 -4.19951 1.4167 -2.48788 0.351994 -4.10012 -0.291778 -0.12788 -0.0359584
145 1 5.78797 11.4174 2.23203 0.913579 -3.10787 0.676852 0.313856 -4.0562 -0.109066 0.500171 0.0494277
147 1 8.63173 11.5707 2.33346 -2.52053 -2.66134 -2.016 0.183844 -4.07922 -0.030317 0.526158 -1.05561
37 1 8.64539 8.6808 -0.578308 -0.410704 1.96136 0.795798 0.355071 -4.12881 -0.49275 0.161191 -0.458557
41 1 14.1834 11.5242 -0.61165 -1.35835 -5.95404 3.83557 0.237037 -4.05832 -0.265349 0.626314 -0.355371
131 1 14.189 8.78043 2.34861 -1.59748 2.05417 3.03081 0.383821 -4.00775 0.794074 -0.186158 -0.784724
38 1 10.1092 10.2499 0.875654 0.647054 3.02786 -2.05404 0.49173 -4.06788 -0.916714 -0.693928 0.512938
39 1 11.3428 8.78317 -0.657836 2.80774 -0.622395 -1.00191 0.22317 -4.08446 0.743937 -0.412905 -0.227871
40 1 12.8549 10.1114 0.892943 -1.75728 -0.634733 -0.267602 0.235191 -4.08999 -0.293224 -0.19514 -0.789255
139 1 11.4119 8.69776 2.31533 -0.425376 2.4171 -0.0430739 0.107165 -4.09255 -0.274993 0.399078 -0.106656
149 1 11.4267 11.5446 2.3162 -0.904464 -0.906018 0.248794 0.172761 -4.06943 -0.0286865 0.185324 -0.310844
49 1 11.351 11.4979 -0.629537 -3.94296 -1.72452 -3.57845 0.142591 -4.03797 0.604857 0.206772 -0.684768
42 1 1.60077 12.9976 0.678484 -0.841826 -0.173751 0.753914 0.417493 -4.07402 -0.678239 -0.0536498 0.256198
44 1 4.30049 12.9516 0.66343 -1.17519 0.372824 -0.13007 0.106206 -4.14434 0.609637 -0.0417387 0.397953
52 1 1.58776 15.7356 0.906012 -0.585983 1.26946 1.71295 0.656559 -3.99192 -0.676108 -0.244909 -0.774772
54 1 4.38463 15.6552 0.758112 0.269637 0.959657 1.9614 0.26551 -4.08217 -0.686813 0.0461885 -0.244747
153 1 2.9946 14.2978 2.24248 -3.03426 -0.361765 3.65674 0.164182 -4.00451 -0.266784 -0.00274969 0.554486
46 1 7.13899 12.8477 0.73373 -0.042375 -0.703018 -2.37022 0.22154 -4.0326 -0.019142 0.362097 0.270175
56 1 7.08452 15.7726 0.679709 0.19616 0.505449 -1.21975 0.243419 -4.08115 -0.11906 -0.0293966 0.319228
155 1 5.76502 14.3443 2.18607 -0.699273 2.50818 -2.71856 0.102657 -4.08799 -0.0389379 0.0238862 0.516446
157 1 8.53251 14.4644 2.26941 1.77519 1.9958 -4.01974 4.96524 -4.09689 -0.0159894 -0.476441 0.0285302
57 1 8.49816 14.3386 -0.57024 5.27468 2.46447 0.151665 0.4776 -3.99105 0.369414 0.0407091 -1.09212
51 1 14.0057 14.3518 -0.709201 5.08997 3.62125 -2.07853 4.66853 -3.99668 1.4814 -0.374851 0.180452
151 1 14.2009 14.4155 2.25081 -4.71089 2.01634 -0.85659 0.119442 -4.00734 -0.269789 -0.549488 0.00587605
48 1 9.93985 13.0563 0.783969 2.86016 2.34417 0.701272 0.267723 -4.0757 0.602152 -0.731401 0.127302
50 1 12.7181 12.9904 0.781291 0.559624 -1.36974 -0.820506 0.174115 -4.07899 0.174235 -0.39197 0.186726
58 1 9.99316 15.7186 0.766087 -3.3381 -1.51398 5.38263 0.166784 -4.08035 0.0674792 0.418139 0.200894
60 1 12.7967 15.7437 0.771672 1.53771 1.90327 -4.70531 0.110533 -4.07156 -0.195491 0.0340373 0.491693
159 1 11.3491 14.3264 2.30043 -0.265735 -1.65506 -3.98071 0.150266 -4.07359 0.31607 0.22225 -0.210685
62 1 1.43944 18.5161 0.806867 0.272627 0.831543 -0.200207 0.115271 -4.03392 0.568828 0.0795973 -0.331774
64 1 4.38586 18.6552 0.810994 1.24428 1.0664 2.86252 5.04359 -4.02495 -0.209631 -0.535213 -0.303821
163 1 2.94245 17.1558 2.13867 0.341627 2.40032 0.506019 0.379199 -4.03404 0.729497 0.254425 0.249092
171 1 0.141802 19.9783 2.33726 -0.0590841 -1.37942 4.27312 0.165638 -4.12453 -0.073554 -0.291083 -0.809349
173 1 2.89555 19.9823 2.22074 0.785649 -1.23368 2.3689 0.143762 -4.11403 -0.803911 -0.554227 0.478061
66 1 7.24355 18.6165 0.810226 2.75597 -4.35103 0.905848 0.361232 -4.16183 -0.528238 0.11075 0.286036
67 1 8.57677 17.1461 -0.685764 -4.30079 -3.56988 1.31798 0.0495292 -4.14659 -0.307177 -0.205997 0.0799353
165 1 5.78304 17.093 2.17715 1.97311 1.99329 -0.167527 0.235698 -4.04852 -0.0171523 -0.00378874 0.0586354
167 1 8.56005 17.078 2.12467 1.63712 1.01306 -0.622391 4.55961 -4.08149 0.375727 -0.271372 0.902198
175 1 5.70632 20.007 2.24627 -3.42076 -2.85137 2.01629 0.131681 -4.0584 0.427253 0.106654 -0.395164
177 1 8.58858 20.043 2.44845 -1.05917 0.80188 -0.731301 0.936192 -3.99844 -0.0304145 -0.912601 -0.947041
75 1 5.71713 19.9361 -0.700327 -4.53949 -0.9021 2.29786 0.126185 -4.07043 -0.00506025 0.00864237 -0.661035
65 1 5.67248 17.193 -0.662829 -1.31158 -3.63153 -0.620776 0.326231 -4.10893 0.631041 0.0585368 -0.0559404
161 1 14.1852 17.2046 2.3424 -8.06951 -0.86164 0.0732044 0.208288 -4.13074 -0.0034052 0.221669 -0.660713
68 1 9.83757 18.5862 0.836149 1.01621 0.95189 3.77626 0.499246 -4.11509 0.702101 0.714714 -0.332508
70 1 12.7582 18.5098 0.796352 -2.75978 -0.241021 0.901339 0.154412 -4.00817 0.144615 0.324887 -0.406945
169 1 11.4357 17.1907 2.23589 -0.050047 0.778513 1.36961 0.108303 -4.06729 -0.586418 0.239206 0.124827
179 1 11.4548 19.9395 2.31991 0.478562 4.61523 -0.247094 0.243575 -4.09324 -0.0393699 0.240152 -0.277732
69 1 11.3235 17.1806 -0.605611 2.51938 -0.439877 2.89062 0.206575 -4.0799 0.162424 0.02304 -0.867609
71 1 14.189 20.001 -0.599057 -3.02828 1.71166 0.793185 0.293406 -3.95726 -0.165843 -0.66639 -0.482015
61 1 14.2026 17.0274 -0.638697 -2.79754 0.110739 5.17862 0.286736 -4.02393 0.200244 0.336496 -0.205145
72 1 1.54936 21.3951 0.715053 2.3338 -3.4761 -2.56089 0.171117 -4.13481 -0.467811 0.142016 -0.1665
74 1 4.24289 21.3195 0.842424 -0.775897 2.76848 -0.309503 0.351911 -4.16821 0.717846 0.166366 -0.707277
82 1 1.5098 24.075 0.643848 -0.197856 1.54937 -4.05427 0.284015 -4.11655 -0.353812 0.507662 -0.0517155
84 1 4.24694 24.1216 0.787713 1.75243 2.83472 -4.12876 0.385903 -4.01664 0.595814 0.740778 -0.233504
181 1 0.128659 22.763 2.18536 -3.03311 -1.67311 -0.629939 0.0459971 -4.08278 0.166673 -0.423386 -0.359809
183 1 2.89382 22.7594 2.14374 0.572942 -1.11899 -0.365379 0.150171 -4.1132 0.203108 0.39608 0.924448
76 1 7.14056 21.2635 0.762004 -0.691281 0.193514 1.05787 0.362317 -3.99448 0.357789 1.14259 0.0799131
86 1 7.25436 24.2668 0.76458 -2.43118 3.29649 -1.15762 0.396605 -3.96087 -0.0738596 -0.338865 -0.458512
185 1 5.72509 22.8979 2.14871 3.67767 -2.14848 -3.35625 0.462639 -4.08477 0.0315636 -1.028 0.229787
187 1 8.47118 22.692 2.31663 -0.732136 -0.532565 -1.73565 0.565764 -4.07987 0.361916 -0.0652222 -0.440687
78 1 9.92402 21.3232 0.70762 -2.14879 -1.2859 1.20999 0.212294 -4.08948 0.297608 0.0147216 0.689009
80 1 12.7264 21.3466 0.78107 -2.02506 0.894117 1.33119 0.0632511 -4.0353 0.566986 -0.30475 -0.566584
88 1 9.99398 24.1702 0.804521 -1.34963 2.3224 -3.76156 0.193882 -4.10638 -0.329087 0.216809 0.14292
90 1 12.8226 24.1983 0.675206 -3.32555 -1.34099 0.789537 0.175714 -4.05178 -0.912794 0.227884 0.744166
189 1 11.404 22.6532 2.16765 1.1462 2.87937 3.03823 0.282475 -3.99704 0.214778 0.617831 0.487106
92 1 1.49183 27.0716 0.75154 -1.55268 0.823337 -0.21304 0.0681778 -4.06062 -0.303962 -0.492226 0.439252
93 1 2.95679 25.6072 -0.690386 -2.98218 -1.24306 2.03838 0.162194 -4.09164 -0.352962 0.327281 -0.526977
94 1 4.31233 27.0701 0.90624 -2.42482 -0.468398 -1.32983 0.638113 -4.00549 -0.374101 0.0372857 -0.693238
193 1 2.87926 25.4829 2.15823 -1.0862 0.475835 1.41936 0.402217 -4.01961 -0.187512 0.954221 0.244637
5 1 5.72241 28.2956 -0.630699 2.69086 -0.906142 0.0342517 0.559064 -4.05988 0.0393998 0.512431 -0.289647
107 1 8.62684 28.3911 2.26319 1.62718 -2.83475 -3.52836 0.289951 -4.11227 -0.483166 1.00362 -0.781334
96 1 7.19496 27.0059 0.753711 3.8854 -2.09663 -3.2721 0.0368939 -4.10512 -0.297773 -0.131411 0.51946
195 1 5.7699 25.6353 2.17294 -1.7019 -1.17403 1.74296 0.124192 -4.05894 -0.257698 0.147042 0.643549
197 1 8.65402 25.6862 2.22463 -0.592902 -0.620959 0.00800132 0.314475 -4.10468 -0.212496 -0.510276 0.525173
7 1 8.51249 28.4072 -0.610052 0.305773 -1.36188 3.04787 0.322143 -4.04495 0.0651193 0.121102 -0.845681
191 1 14.1954 25.5315 2.18197 -0.0885336 -4.4938 -0.48509 0.206457 -3.99063 0.284846 0.111153 -0.470865
98 1 9.85719 27.0277 0.710391 2.60699 4.64685 0.62246 0.387786 -4.14484 1.08356 -0.0410636 -0.0420513
100 1 12.8111 27.1397 0.764117 0.688756 2.41483 -3.36628 0.109483 -4.06471 0.425723 -0.304201 -0.169418
199 1 11.3947 25.7747 2.22617 -1.77748 -0.753815 0.440887 0.577679 -4.02006 0.554078 -0.530905 0.373028
99 1 11.3966 25.6653 -0.648594 -3.11862 -0.640777 0.494149 0.136176 -4.08199 0.0651024 0.121897 -0.0225313
102 1 1.43258 1.58866 3.72194 7.38627 -3.29026 1.48818 0.292048 -4.09121 -0.00632683 0.244961 -0.249869
104 1 4.40471 1.70471 3.63411 -2.62904 -0.431866 -2.50035 0.224453 -4.08431 -1.12624 0.17878 -0.478659
202 1 1.64591 1.56967 6.52066 2.02744 3.5456 -1.59179 0.589492 -4.06402 -1.22449 0.979528 0.222779
203 1 2.94499 0.259696 5.12276 -1.3304 -3.48688 0.0854903 0.126751 -4.10636 0.554914 -0.16748 -0.479909
204 1 4.18458 1.68524 6.59969 -0.935437 1.48785 2.63114 4.32954 -4.06749 1.06559 -0.822761 -0.0939942
213 1 2.88677 3.08084 5.08942 -2.28947 -0.845795 -1.07431 0.340681 -4.112 0.275641 -0.0200615 0.15706
106 1 7.15632 1.63052 3.61944 0.736671 -1.16949 0.0239501 0.229365 -4.13751 0.495307 0.548171 0.761189
205 1 5.64874 0.299036 4.99191 2.33469 0.995414 0.291621 0.545334 -3.99987 0.715738 -0.280891 1.38668
206 1 7.2548 1.68985 6.56221 -1.46106 -1.55409 1.7364 0.347463 -4.03316 -0.476389 -0.969517 -0.221161
207 1 8.58474 0.236208 5.19655 1.31666 3.04051 1.49325 0.142774 -4.05163 0.46478 0.0547456 -0.821474
215 1 5.78167 2.95842 5.24751 -1.49422 -2.50707 3.51511 0.503772 -4.05197 -0.0895864 0.455458 -0.768931
217 1 8.60442 3.0921 5.14529 -1.80041 2.92479 -5.24384 0.120655 -4.08768 -0.509187 0.00950956 0.400918
201 1 14.2143 0.277593 5.20009 -0.76465 1.66164 -3.30675 0.309966 -4.10128 0.0391438 0.165909 0.00724801
211 1 14.1953 3.09372 5.25248 0.131749 -3.47244 0.658656 0.253226 -4.07406 0.283268 -0.661931 -0.67938
108 1 9.98023 1.81548 3.74293 1.78008 -0.0382443 0.481447 5.34105 -4.00371 0.433187 -1.24793 0.139433
110 1 12.7567 1.63776 3.65542 0.143622 0.261967 0.471904 0.156821 -3.99145 0.399082 0.261336 0.40621
208 1 9.93587 1.5992 6.64864 -2.11946 3.54369 -4.60115 0.124193 -4.1751 0.280455 0.122678 0.0778513
210 1 12.7168 1.62492 6.67614 1.93469 -2.84729 3.21644 0.351484 -4.04222 -0.121966 0.137608 -0.459374
219 1 11.4042 3.08595 5.16938 2.96876 -3.6 -0.306264 0.0650812 -4.03643 -0.0392496 0.0146085 -0.155395
112 1 1.47335 4.44722 3.80314 -2.08488 5.53109 1.88305 0.227579 -4.02564 -0.0511323 0.654438 -0.116145
114 1 4.45714 4.53943 3.81518 0.408107 -1.46821 1.68028 0.428667 -4.09416 -0.180878 -0.696056 -0.441942
122 1 1.5387 7.19477 3.77128 -2.178 2.10286 -1.52883 0.264027 -3.99069 -0.585668 0.340601 -0.194772
124 1 4.30599 7.3213 3.74929 -1.70609 -0.894295 0.386355 0.156437 -3.99034 -0.110638 0.369618 0.272949
212 1 1.5107 4.56417 6.65463 1.71349 1.1107 -0.37813 0.378332 -4.10007 0.158828 -0.810432 -0.0329256
214 1 4.35594 4.34938 6.6722 -3.60792 0.888428 1.10906 4.7201 -4.09007 0.104831 0.801309 -0.294465
222 1 1.54559 7.23945 6.63383 2.60978 -1.28947 -2.65909 0.155411 -4.11102 -0.298541 -0.0201673 -0.0127708
223 1 3.00176 5.86832 5.20765 -2.9209 -3.41332 -1.19244 0.119496 -4.10832 -0.308431 -0.0626032 -0.17431
224 1 4.45542 7.31972 6.66863 2.28078 -2.16034 3.83898 0.291401 -4.05036 -0.691149 0.0501221 -0.455904
116 1 7.08446 4.43511 3.7497 -0.717838 -0.661302 1.69127 5.03485 -4.10213 0.291316 0.381217 0.0107495
126 1 7.33953 7.39572 3.72931 1.37971 -3.46356 0.697126 0.485117 -3.99445 -0.336194 -0.249944 -0.18688
216 1 7.15048 4.45322 6.52203 0.663868 1.20315 1.59813 0.322674 -4.13629 0.178724 0.379381 0.273299
225 1 5.7941 6.05956 5.1252 0.299468 -1.75276 -1.18853 0.61454 -4.04913 -0.333874 -0.829399 0.383421
226 1 7.22143 7.27669 6.63652 -1.92098 2.73055 -2.00716 0.10973 -4.13901 0.136844 -0.0438132 -0.0748929
227 1 8.61587 5.8789 5.13157 -0.532809 -0.371899 0.126652 0.128441 -4.04787 -0.197296 -0.0544211 -0.158097
221 1 14.1524 5.86373 5.22128 0.796103 -1.93786 -0.0692733 0.124086 -4.07521 0.353888 0.203797 -0.735955
118 1 10.0291 4.4796 3.71385 -2.00022 0.251406 -1.34662 0.0990175 -4.13021 -0.372202 -0.101515 -0.348404
120 1 12.7727 4.51546 3.65202 -2.93314 -0.0391201 0.674702 0.1079 -4.11134 0.144585 -0.134614 0.378773
128 1 10.0124 7.32217 3.66673 -2.7644 2.28321 3.1472 0.122788 -4.11129 -0.374332 0.277399 0.251512
130 1 12.7448 7.26336 3.67245 -1.8326 -3.86476 -3.53257 0.156634 -4.11512 0.455816 -0.189192 0.0850692
218 1 9.92391 4.44006 6.63089 2.54663 2.02038 1.45237 0.0875036 -4.12308 0.201736 -0.0256005 0.324958
220 1 12.7806 4.44772 6.62295 -0.879614 -1.25736 1.20844 0.0622384 -4.00553 0.140483 -0.270482 0.318279
228 1 9.92162 7.27115 6.71297 0.0778168 -0.255412 1.79302 0.252609 -4.09767 0.00804652 0.192541 -0.172135
229 1 11.2652 5.91426 5.20172 0.58398 1.74186 -1.1864 0.297502 -4.09631 0.839458 -0.199603 0.346283
230 1 12.8446 7.35538 6.55053 2.31232 0.678649 1.21522 0.271696 -4.06522 -0.26669 -0.553331 0.424854
132 1 1.49806 10.2454 3.63399 0.926583 1.77752 2.20689 0.198843 -4.03916 -0.139002 -0.519952 0.240147
134 1 4.33421 10.2257 3.76665 -1.95039 -2.01599 -1.69927 0.272348 -4.03701 0.372771 -0.493545 -0.134394
232 1 1.56015 10.1641 6.64976 2.12226 0.0705619 -0.681687 0.205646 -4.1092 -0.470564 -0.0254079 -0.406142
233 1 2.86938 8.7146 5.22378 -0.683116 0.194601 5.31636 0.143524 -4.04996 0.124234 0.0310964 -0.815323
234 1 4.30212 10.2221 6.62889 -0.621179 0.157015 -0.123602 5.19452 -4.09144 0.806769 -0.737253 0.160937
241 1 0.149986 11.5192 5.12658 -2.41095 0.904273 -0.0212207 0.0907397 -4.07751 -0.290514 -0.200822 0.363798
243 1 2.87755 11.525 5.07549 -0.234391 0.744033 0.670144 0.235747 -4.04799 -0.272077 0.155868 0.335087
136 1 7.34978 10.1327 3.74475 0.629619 0.98562 1.20116 4.79984 -4.09777 -0.600106 0.373638 -0.351715
235 1 5.87066 8.81598 5.09869 0.465343 -1.43871 1.4062 0.370028 -4.08379 -0.659649 -0.907825 0.0999159
236 1 7.13391 10.1574 6.65562 2.36863 -0.429749 -0.449581 0.256744 -4.12852 0.138935 0.0250109 0.303133
237 1 8.63235 8.75913 5.3147 2.56455 0.935182 0.542097 0.349117 -4.13302 -0.217258 -0.227573 -0.775419
245 1 5.87987 11.5851 5.16131 0.240801 -0.541356 -0.243051 0.422736 -4.07089 -0.320709 -0.217504 -0.149616
247 1 8.6244 11.498 5.26715 0.432483 -3.51449 2.45946 0.190501 -4.13692 0.00558285 0.471961 -0.0073912
231 1 14.2058 8.74973 5.12558 -0.187028 1.52542 1.17023 0.0853686 -4.13056 0.319744 0.0803859 0.172869
138 1 9.92992 10.142 3.67979 -1.64946 -2.47072 4.24093 5.03477 -4.152 0.751338 0.0317359 0.390153
140 1 12.8378 10.2224 3.68771 -3.06779 0.590986 0.953237 0.188739 -4.1372 -0.338288 -0.279192 0.335045
238 1 10.0462 10.0877 6.65495 4.00462 1.03455 -0.403308 0.13882 -4.04121 0.0890056 -0.0503713 0.740368
239 1 11.364 8.67474 5.13273 1.07823 -1.10089 5.00007 0.0964456 -4.10972 0.246161 0.147508 -0.25004
240 1 12.788 10.0949 6.48261 0.473313 1.12475 -2.36237 0.360793 -4.00407 0.211747 0.768006 0.984705
249 1 11.3994 11.5636 5.25669 0.00818624 4.09037 -1.73351 0.238653 -4.09165 -0.183733 -0.310888 -0.328843
142 1 1.52181 13.0509 3.7875 -1.28477 -4.17543 2.9049 0.340672 -4.13255 0.319029 -0.0467133 -0.374563
144 1 4.29805 12.8216 3.62392 1.81958 -2.20134 0.0142737 4.70952 -4.07012 0.651895 0.586786 0.591017
152 1 1.51339 15.8576 3.76396 -0.669006 2.84052 -0.820189 5.11598 -4.1689 0.525409 -0.499722 -0.500644
154 1 4.25725 15.7179 3.68005 2.46855 -1.35996 -1.82568 0.303973 -4.06843 0.769826 0.380287 -0.250472
242 1 1.53992 12.9165 6.59881 0.280113 3.4737 -1.1283 0.116052 -4.15246 -0.0344506 0.185162 0.0541739
244 1 4.24982 12.7782 6.62501 2.14938 -0.0921022 -0.749942 5.10114 -4.09385 0.546279 0.437168 -0.259431
251 1 0.128475 14.4623 5.22357 2.68999 -0.1114 0.508103 0.220388 -4.06987 -0.394466 -0.165989 0.172278
252 1 1.63436 15.7834 6.51264 -3.12021 0.366244 0.726554 0.450683 -4.02129 0.145269 -0.350043 0.821483
253 1 3.02926 14.3678 5.19874 0.643288 -2.70259 -2.00417 0.349828 -4.0348 -0.16858 0.00110867 -0.496941
254 1 4.32401 15.7314 6.71718 -3.29084 -1.84392 -1.68306 0.266021 -4.03612 -0.0654499 0.0921588 -0.315385
146 1 7.13468 12.9886 3.69419 1.04428 0.1527 -2.62964 0.131272 -3.94208 0.560935 -0.595294 0.232442
156 1 7.1141 15.8395 3.72068 -5.45427 -4.00032 2.42238 0.287203 -4.0547 -0.0597293 0.0385599 -0.0105862
246 1 7.17912 12.9922 6.66893 0.991656 -1.68864 -0.448699 0.135056 -4.03462 0.653382 -0.498488 -0.239473
255 1 5.79332 14.3612 5.11719 0.949383 2.2935 -3.25327 0.175096 -4.11539 -0.661086 -0.169545 0.156098
256 1 7.19239 15.8423 6.53392 -0.861153 0.781607 -0.146585 0.366325 -4.06003 0.675855 -0.670482 0.0283983
257 1 8.60857 14.4287 5.21493 -2.00567 3.54744 2.76289 0.072139 -4.08164 -0.165245 -0.534782 -0.563568
148 1 10.0789 12.8625 3.78995 2.53119 -0.204599 1.59625 0.296917 -4.03822 -0.787876 0.379899 -0.178345
150 1 12.8144 12.9078 3.75663 0.842405 -1.04171 -0.584461 0.154674 -4.1378 0.597331 0.282891 -0.089571
158 1 10.0599 15.8093 3.77319 1.95172 -4.28031 -2.67566 0.249219 -4.05119 0.384767 -0.54606 -0.151773
160 1 12.7974 15.8078 3.67537 2.05154 2.79304 -0.0709358 0.184536 -4.08652 -0.168521 -0.230852 0.702043
248 1 10.001 13.0598 6.67382 1.15591 3.93167 -3.97146 0.325735 -4.04245 0.108424 -0.308948 0.108591
250 1 12.9049 12.9601 6.57841 1.45982 -1.9964 -1.75047 0.252279 -4.09829 0.0539336 0.0102481 0.239418
258 1 10.0849 15.781 6.63641 3.15439 -2.57917 -3.22034 0.183979 -4.12504 -0.363705 -0.57726 0.445361
259 1 11.5154 14.2983 5.15978 2.36546 0.76793 -0.871017 0.265761 -4.09315 -0.828461 0.625018 0.266312
260 1 12.7221 15.7462 6.66366 1.07372 0.97037 -2.70378 0.525812 -4.01498 0.414941 0.0881416 -0.0114775
162 1 1.61205 18.4318 3.70673 0.103087 0.473685 0.329909 4.82742 -4.08101 -0.409434 0.499182 0.504321
164 1 4.41893 18.6151 3.59519 -0.211573 3.22505 -5.20284 0.334807 -4.05771 -0.390967 -0.520521 0.62047
262 1 1.64124 18.6991 6.61392 -1.57751 0.894061 -4.43727 0.342405 -4.11272 -0.804547 -0.653095 -0.318069
263 1 3.02324 17.1738 5.14674 -2.37006 -0.133771 0.32695 0.256936 -4.10048 -0.23501 0.45541 0.599416
264 1 4.25569 18.5351 6.75516 2.99979 1.41468 -0.253245 0.471004 -4.06029 0.879353 0.476289 -0.20742
271 1 0.239882 19.931 5.0571 -2.9132 -1.24747 -1.34561 0.581781 -4.066 -0.365215 0.0548526 0.186276
273 1 3.06119 20.0027 5.16246 0.40391 -0.0741893 3.19324 0.354015 -4.10103 -0.210368 0.548089 -0.0092161
166 1 7.16241 18.5363 3.68885 0.698547 0.150344 -2.49931 0.167969 -4.15947 0.00733254 -0.17721 -0.328096
265 1 5.71847 17.1429 5.279 -1.6126 -0.82668 -3.54668 0.411999 -4.09769 -0.692739 0.05243 -0.562192
266 1 7.25348 18.553 6.53514 1.95445 3.37989 -0.145865 0.533122 -4.02 -0.715174 -0.181129 0.513015
267 1 8.63962 17.1234 5.08946 1.62128 1.24999 -1.44411 0.256348 -4.05023 -0.305528 0.183773 0.546071
275 1 5.66392 19.9514 5.16859 0.0670137 -1.38317 -3.87798 0.296629 -4.09123 0.714125 0.133032 0.127056
277 1 8.52362 20.0544 5.15814 0.898333 -0.0775842 -0.479706 0.250522 -4.12331 0.451355 -0.0561598 0.0566254
261 1 14.1769 17.1487 5.23706 3.22524 -0.724689 1.23685 0.350349 -4.12086 0.0922323 0.292227 0.157487
168 1 9.9888 18.5753 3.73056 -3.61858 0.233632 -1.83299 0.196083 -4.06362 -0.418009 -0.217302 0.133261
170 1 12.8038 18.6463 3.83377 0.900172 4.64776 -2.52583 0.317535 -4.09115 -0.326016 -0.800936 -0.250367
268 1 9.90461 18.5053 6.73034 4.57801 -0.241298 0.328247 0.292194 -4.04302 0.180963 0.511013 -0.815381
269 1 11.4148 17.1891 5.34018 1.22914 3.37173 -1.05524 0.37396 -4.05564 0.571869 0.646945 -0.875943
270 1 12.909 18.7314 6.61904 -1.75346 -1.91228 -0.862528 0.525868 -4.06668 -0.746595 -0.447185 0.605031
279 1 11.3598 20.0486 5.13685 2.0114 -4.45816 0.994583 0.255578 -4.04442 -0.371082 -0.185333 0.611789
172 1 1.47279 21.4257 3.73358 2.33301 -0.225112 2.95214 0.267854 -4.09133 0.770905 0.188397 -0.458336
174 1 4.32705 21.4567 3.58444 -1.27528 -0.710527 -1.51037 0.263496 -4.09256 0.119352 -0.230897 0.130294
182 1 1.5749 24.1646 3.68726 -0.784188 -3.79054 -2.16947 0.0644203 -4.13709 -0.498573 0.0247441 0.479894
184 1 4.3073 24.238 3.64574 -0.587332 0.565944 -1.32797 0.142735 -4.07814 0.010802 -0.703115 -0.0217954
272 1 1.50093 21.4332 6.54081 -1.3891 0.701157 2.48604 0.357766 -4.12681 0.292161 -0.193366 0.980554
274 1 4.4257 21.4489 6.69811 2.59471 -0.91757 -0.537123 0.256512 -4.02768 0.209231 -0.327413 -0.439685
281 1 0.183488 22.7914 5.22061 -2.74019 0.616667 0.622568 0.148327 -4.00662 -0.509592 0.524423 -0.443796
282 1 1.52472 24.1909 6.70582 -1.23117 0.365724 -0.651941 0.157444 -4.09845 0.979717 -0.186618 -0.873474
283 1 2.92311 22.8102 5.2379 1.18139 2.06881 4.32688 0.167477 -4.04019 0.967464 -0.123119 -0.132704
284 1 4.42474 24.2671 6.67428 -2.88227 1.45219 3.65201 0.15998 -4.03045 -0.0222305 -0.326398 -0.181451
176 1 7.06694 21.3141 3.75372 -3.95137 -1.5893 -1.01736 0.38736 -4.0627 0.513015 -0.25181 -1.01188
186 1 7.17879 24.1447 3.59746 2.78581 2.06017 1.88695 0.186363 -3.99885 0.181479 0.872329 0.161577
276 1 7.10716 21.4372 6.68747 2.60993 -1.18025 -2.38511 0.236756 -4.05737 0.196565 -0.229597 -0.404624
285 1 5.85589 22.7635 5.03734 1.31531 1.02106 -0.50399 0.525312 -4.02322 -0.98494 1.12646 1.21248
286 1 7.16944 24.2408 6.66841 1.08031 -1.08147 0.839848 0.269649 -4.04903 -0.129202 -0.524289 -0.638566
287 1 8.6565 22.7436 5.08194 2.42 3.87829 -0.705154 0.32766 -4.21122 -0.312835 0.265499 0.556524
178 1 9.99102 21.4199 3.65032 -1.13098 -1.50552 3.15931 0.235334 -4.07814 0.823377 0.137009 0.0865476
180 1 12.8404 21.4228 3.77882 -0.471497 0.0061306 0.269058 0.283982 -4.19741 -0.0400362 0.464429 0.231903
188 1 10.0407 24.0693 3.54764 -1.30348 -2.27273 0.479064 0.797029 -3.97765 -0.00359231 0.976325 0.327029
190 1 12.925 24.1389 3.66028 -1.55903 -2.12372 1.13416 0.398582 -4.01027 -0.691354 0.231572 0.00849603
278 1 9.94955 21.4304 6.73698 1.38589 -0.978514 1.96516 0.311664 -3.99896 0.195479 -0.989724 -0.833152
280 1 12.8739 21.3633 6.55444 1.61778 1.13426 1.57654 0.28526 -4.15281 -0.26674 -0.0770601 -0.00161129
288 1 10.0194 24.1956 6.71812 2.68269 2.22443 1.78439 0.3721 -4.01798 -0.368983 -0.1986 0.0275345
289 1 11.3072 22.8471 5.16335 -3.96248 4.07387 -0.259648 0.484667 -4.11068 0.620744 -0.385504 0.390059
290 1 12.8777 24.1232 6.6087 1.06046 -1.98762 3.24564 0.235033 -4.11012 -0.17997 0.524226 -0.0119568
192 1 1.54582 26.9795 3.71906 0.832332 -0.820942 0.130328 0.144069 -4.16656 -0.272717 0.0854969 -0.388232
194 1 4.33343 27.1078 3.66356 -1.61671 -3.20912 1.28134 0.248467 -4.07606 -0.468478 -0.437833 -0.41226
291 1 0.123486 25.6243 5.27709 -1.91934 -0.395923 -0.219087 0.364516 -4.01063 0.190191 -0.316253 -0.890334
292 1 1.58125 27.1181 6.52682 0.521729 -0.104332 -0.21211 0.256778 -4.14402 -0.173255 -0.528066 -0.0750038
293 1 3.0799 25.6086 5.13628 2.80973 1.17343 -0.298043 0.378569 -4.01251 -0.672264 -0.352057 0.17764
294 1 4.2495 27.1204 6.60149 -1.17778 2.9951 1.58236 0.249809 -4.06328 0.882685 0.0987518 -0.094335
196 1 7.3038 27.0489 3.80069 3.37805 -2.98627 4.17109 0.563396 -4.02571 -0.81445 0.199334 -0.951282
295 1 5.73558 25.636 5.11609 2.43808 0.681994 -1.51506 0.152932 -4.11053 0.0574914 0.0109922 0.410881
296 1 7.17419 27.0665 6.51697 0.309675 6.50899 -1.89168 0.238414 -3.98309 -0.172684 0.785319 -0.144749
297 1 8.56397 25.5256 5.16107 -0.134748 1.31643 -3.31811 0.3405 -4.11973 1.00057 0.0160357 -0.199109
209 1 11.3537 28.3011 5.22593 -0.393176 -1.47754 0.78913 5.59862 -3.98643 0.77388 0.807693 -0.998322
198 1 9.95313 27.0869 3.60356 0.689763 -0.698924 -1.31982 0.291997 -3.91842 0.338283 -0.44808 1.31007
200 1 13.0099 27.0067 3.65573 5.30296 -0.270392 0.651806 5.24362 -4.00701 -0.967118 0.395871 0.418422
298 1 9.9521 27.1594 6.67686 1.28797 -2.74568 -4.13594 0.324335 -4.06328 -0.378884 -1.06275 0.199484
299 1 11.357 25.6421 5.20227 0.613569 6.18239 1.53807 5.87024 -4.0291 0.391173 0.0526294 -0.638215
300 1 12.9347 27.0657 6.66935 -0.577292 -1.28953 -3.83829 0.2946 -4.08383 -0.559621 0.162486 0.266766
301 1 0.190771 0.330155 7.96889 0.5675 -0.168496 -2.46061 4.70421 -4.12757 0.289548 -0.216134 0.548486
302 1 1.52998 1.64637 9.68696 -1.42736 -3.15682 0.972455 0.277095 -4.08211 -0.089964 -0.239983 -0.575024
303 1 2.87995 0.257353 8.11793 0.341516 -0.0404191 -2.60214 0.180255 -4.10934 0.0923994 -0.366449 0.0917516
304 1 4.29008 1.6221 9.53325 -4.04083 -0.468429 4.02966 0.149538 -4.04839 -0.165415 0.534252 0.0178828
311 1 0.149724 2.85167 8.10989 -1.74976 0.28104 0.763369 4.98518 -4.03657 0.120844 1.38675 -0.708443
313 1 2.89377 2.99568 8.00011 0.148637 -0.416692 -0.495992 0.333079 -4.00911 -0.281593 0.433016 1.06643
403 1 2.9679 0.297361 11.0739 0.394335 0.406084 2.23505 0.173115 -4.08983 -0.271421 -0.358861 -0.325443
411 1 0.156785 3.04543 11.0301 0.660313 -0.658618 -1.38298 0.13518 -4.11411 -0.405492 0.612113 -0.146065
413 1 2.87494 3.0559 11.1367 -3.05234 -3.9865 -0.430171 0.320952 -4.13187 0.479312 0.272582 -0.544362
305 1 5.63949 0.272746 8.11375 -2.6762 0.601797 -1.53878 0.270449 -4.00985 0.859205 0.367759 -0.544371
306 1 7.16827 1.7968 9.56169 -0.497955 1.38302 -0.554626 0.423244 -3.9537 -0.306076 -0.815507 0.363788
307 1 8.54451 0.339894 8.15673 2.06573 -1.47317 -0.377265 0.311366 -4.10201 -0.356874 -1.00398 0.0352027
315 1 5.88369 2.98404 8.03276 0.746495 3.22544 0.384377 0.61968 -4.05094 -0.950894 0.289609 0.456982