ITEM: TIMESTEP
82000
ITEM: NUMBER OF ATOMS
2000
ITEM: BOX BOUNDS pp pp pp
1.0838953229856951e-01 1.4221610467701321e+01
2.1677906459713903e-01 2.8443220935402643e+01
-1.8810101042117733e+00 5.9201010104211335e+01
ITEM: ATOMS id type x y z vx vy vz c_csym c_peratom fx fy fz
2 1 1.62332 1.66863 -0.346156 -0.282889 -3.25185 -0.636516 0.278325 -4.04297 -0.200228 -0.0192684 -0.31874
4 1 4.35789 1.61575 -0.420306 0.990702 -5.33602 3.45801 0.233516 -4.06553 0.170984 -0.16508 0.70112
11 1 0.115605 3.14255 -1.83167 0.617832 -0.194419 3.50607 0.222387 -3.98946 0.0679912 -0.146373 -0.448335
101 1 0.126621 0.284403 1.14523 -1.57173 1.46596 2.1275 0.152366 -4.0636 -0.192404 -0.052396 -0.137607
103 1 2.85007 0.270771 1.20648 0.287695 0.367304 -1.8153 0.24229 -3.94324 0.35777 -0.138566 0.066225
111 1 0.168447 3.08626 1.17242 -2.2925 0.592843 0.179022 0.132454 -4.06215 -0.212911 0.162226 0.034231
113 1 2.87763 3.13123 1.22944 -1.71434 2.42111 -1.1208 0.333953 -4.01415 -0.27317 0.146283 -0.0877048
13 1 2.94284 3.10367 -1.86146 -0.0706192 -1.95523 0.774801 0.0735882 -3.9618 -0.415864 0.221292 0.0363667
6 1 7.17995 1.58532 -0.3531 -1.53139 -1.81767 -2.43971 0.229135 -4.03192 0.156081 0.825184 -0.176272
17 1 8.63608 3.25517 -1.8099 -1.24355 -0.0988133 -0.860341 5.08352 -4.01646 -0.0598147 -0.450818 -0.151991
105 1 5.90739 0.22905 1.17391 0.812795 -1.48127 -4.16198 0.294896 -4.02774 -0.621637 -0.438882 0.312225
115 1 5.79048 3.13764 1.15876 -0.932742 0.818202 0.0439582 0.182297 -3.99921 -0.246615 -0.474143 -0.106782
117 1 8.60233 3.08029 1.24133 0.475293 0.415756 -1.302 0.166979 -3.99912 -0.324715 0.0852619 -1.02812
15 1 5.86915 3.09703 -1.82232 -1.1078 -3.23994 -0.243916 0.295343 -3.94561 -0.536973 0.261227 -0.455306
8 1 9.98472 1.71462 -0.471555 1.02028 2.64764 -1.65962 0.404915 -4.00231 -0.494237 -0.194236 1.0735
9 1 11.3244 0.287262 -1.7779 -0.628437 1.37052 0.162777 0.404518 -3.99915 1.01126 -0.427701 0.089888
10 1 12.8557 1.68831 -0.419761 -0.261261 2.58464 0.684826 0.137863 -3.97842 -0.233793 0.254269 -0.0107701
109 1 11.3921 0.306018 1.14318 4.17545 -4.26001 3.01885 0.16963 -4.01276 -0.184314 -0.424407 -0.41044
119 1 11.4562 3.11085 1.08763 -0.877516 0.612354 1.13148 0.155794 -4.05236 -0.242387 -0.438561 0.111624
12 1 1.52356 4.6359 -0.451139 1.18436 1.40208 1.05812 0.579637 -3.99599 0.294972 -0.602575 0.292499
14 1 4.34915 4.42365 -0.250674 -0.761965 1.11821 -1.53086 0.274891 -4.05254 0.0379892 -0.0535129 -0.355125
22 1 1.54026 7.32431 -0.423126 0.529166 1.27637 -0.648244 5.65426 -3.97563 0.097153 -0.324686 0.57686
23 1 3.01689 5.92797 -1.85274 4.21453 0.286138 -0.65637 0.224275 -3.97747 -0.0336697 0.0434859 -0.0345365
24 1 4.35552 7.36387 -0.351302 0.718611 1.41969 0.425215 0.108881 -3.98575 -0.5263 0.357661 0.265446
121 1 0.132435 5.82793 1.16529 -2.35864 3.10392 -0.471262 0.188656 -3.98434 0.105959 0.443233 0.245887
123 1 3.01618 5.86763 1.26275 1.00139 1.8653 -1.24788 0.258316 -4.05234 -0.0518747 0.237904 -0.251775
16 1 7.14135 4.5226 -0.272363 0.603539 0.154603 0.133915 0.157835 -4.0114 -0.209795 -0.118504 -0.367039
25 1 5.70759 5.92495 -1.76033 -0.827089 1.1553 2.35682 0.328348 -4.07719 0.276165 -0.327767 -0.784753
26 1 7.1412 7.16975 -0.402004 -0.0337704 2.62343 0.778117 5.07669 -3.90974 0.275568 1.28011 0.513671
125 1 5.74127 5.95799 1.20962 -0.136011 -2.75282 -0.154075 0.138492 -4.13369 -0.185739 -0.0869176 0.454271
127 1 8.57446 5.88387 1.07105 -1.51658 -3.67076 0.00771245 0.37762 -4.02486 0.395867 -0.283943 0.345687
18 1 10.0587 4.47472 -0.349794 2.01504 1.15568 0.108705 0.214636 -4.01241 0.00664308 0.26077 0.0700747
20 1 12.7939 4.54238 -0.384221 -0.022531 3.00342 -1.17168 0.0616711 -4.06637 0.0756515 -0.16436 0.512161
28 1 10.1169 7.35391 -0.258502 1.08986 -1.21663 1.80841 0.40933 -3.98616 -0.271963 -0.27054 -0.0170459
29 1 11.4127 5.98723 -1.86274 1.3822 1.47477 -0.555896 0.0539615 -4.05759 -0.468053 -0.626209 -0.439293
30 1 12.8531 7.28188 -0.287572 0.362699 -0.519128 0.486825 0.136672 -4.06813 0.0106777 0.275678 0.0728789
129 1 11.3642 5.90889 1.21694 -0.995542 1.01394 2.2528 0.110627 -4.06031 0.240759 -0.291654 -0.38836
32 1 1.48279 10.1923 -0.420547 2.66336 -1.18469 0.933482 0.231078 -4.09961 0.0827114 -0.184946 0.11461
34 1 4.32744 10.195 -0.419607 -3.42019 -1.92301 1.41173 0.193264 -4.0226 -0.407402 -0.676308 0.433768
43 1 2.92107 11.628 -1.85802 2.17426 0.782241 3.50485 0.118221 -4.06649 -0.381062 -0.599811 -0.280971
133 1 2.87707 8.77788 1.1995 -1.44944 0.975575 0.710255 0.0914612 -3.98568 0.147084 0.00705772 0.293382
141 1 0.146359 11.6297 1.08226 -2.20193 -7.04944 -1.51669 0.319719 -4.07391 0.231078 0.14117 0.619332
143 1 2.92416 11.521 1.1753 -0.572232 1.1909 1.77002 0.163955 -4.08143 -0.299145 0.370945 -0.493259
36 1 7.17897 10.1662 -0.30282 0.10168 3.47717 0.174941 0.167658 -3.94116 -0.206398 0.0995364 0.0761267
47 1 8.63625 11.4798 -1.77511 -1.46078 2.66256 0.234251 0.287251 -4.0227 -0.125426 -0.0700409 -0.538653
135 1 5.71447 8.72482 1.27773 -0.880733 0.590278 -0.109653 5.59558 -4.00689 0.318969 -0.179577 -0.569144
137 1 8.61908 8.74613 1.10885 -4.19951 1.4167 -2.48788 0.365762 -4.04975 -0.122259 -0.0332487 -0.414093
145 1 5.78797 11.4174 1.17796 0.913579 -3.10787 0.676852 0.314749 -4.00303 -0.0633371 0.457318 0.132424
147 1 8.63173 11.5707 1.28343 -2.52053 -2.66134 -2.016 0.191775 -4.03151 -0.269204 0.140586 -0.544342
37 1 8.64539 8.6808 -1.74447 -0.410704 1.96136 0.795798 0.369745 -4.08237 -0.59703 0.12425 0.0407571
41 1 14.1834 11.5242 -1.77914 -1.35835 -5.95404 3.83557 0.24742 -4.02563 -0.0700016 0.354832 -0.0147802
131 1 14.189 8.78043 1.29919 -1.59748 2.05417 3.03081 0.405654 -3.95596 0.718722 -0.36408 -0.465984
38 1 10.1092 10.2499 -0.232515 0.647054 3.02786 -2.05404 0.496137 -4.03399 -0.716283 -0.498497 0.330147
39 1 11.3428 8.78317 -1.82717 2.80774 -0.622395 -1.00191 0.223769 -4.03662 0.678791 -0.309679 0.148698
40 1 12.8549 10.1114 -0.214537 -1.75728 -0.634733 -0.267602 0.246726 -4.04087 -0.242386 -0.00235109 -0.58059
139 1 11.4119 8.69776 1.26458 -0.425376 2.4171 -0.0430739 0.110159 -4.06137 0.00588287 0.366431 -0.0761547
149 1 11.4267 11.5446 1.26549 -0.904464 -0.906018 0.248794 0.177458 -4.03489 -0.0572852 0.129907 -0.503656
49 1 11.351 11.4979 -1.79774 -3.94296 -1.72452 -3.57845 0.144755 -3.99269 0.337631 0.265983 0.0219917
42 1 1.60077 12.9976 -0.43755 -0.841826 -0.173751 0.753914 0.429469 -4.02883 -0.717872 0.0960671 0.3905
44 1 4.30049 12.9516 -0.453204 -1.17519 0.372824 -0.13007 0.110965 -4.09729 0.452994 -0.188319 0.478204
52 1 1.58776 15.7356 -0.200946 -0.585983 1.26946 1.71295 5.11521 -3.92602 -0.854489 -0.181368 -0.824952
54 1 4.38463 15.6552 -0.354745 0.269637 0.959657 1.9614 0.273828 -4.04921 -0.349031 0.377648 -0.324205
153 1 2.9946 14.2978 1.18883 -3.03426 -0.361765 3.65674 0.166216 -3.97157 -0.391451 0.170049 0.451422
46 1 7.13899 12.8477 -0.380101 -0.042375 -0.703018 -2.37022 0.225736 -3.99054 -0.319064 0.59702 0.11169
56 1 7.08452 15.7726 -0.436276 0.19616 0.505449 -1.21975 0.255451 -4.05131 0.139018 -0.0816063 -0.200504
155 1 5.76502 14.3443 1.13017 -0.699273 2.50818 -2.71856 0.103714 -4.03144 0.212826 0.0365258 0.190417
157 1 8.53251 14.4644 1.21683 1.77519 1.9958 -4.01974 5.09922 -4.04251 -0.0470484 -0.107623 0.211046
57 1 8.49816 14.3386 -1.73608 5.27468 2.46447 0.151665 0.508369 -3.93504 0.304363 0.151833 -0.687244
51 1 14.0057 14.3518 -1.88058 5.08997 3.62125 -2.07853 4.81032 -3.94358 1.00629 -0.273701 -0.0922801
151 1 14.2009 14.4155 1.19748 -4.71089 2.01634 -0.85659 0.123752 -3.95162 -0.122164 -0.205891 0.0725396
48 1 9.93985 13.0563 -0.327857 2.86016 2.34417 0.701272 0.272066 -4.01963 0.467383 -0.7188 -0.100142
50 1 12.7181 12.9904 -0.330643 0.559624 -1.36974 -0.820506 0.179757 -4.02694 0.240564 -0.145869 -0.0496257
58 1 9.99316 15.7186 -0.346452 -3.3381 -1.51398 5.38263 0.173584 -4.04678 0.0905109 0.51559 -0.276173
60 1 12.7967 15.7437 -0.340645 1.53771 1.90327 -4.70531 0.112541 -4.03981 -0.266768 -0.0143227 0.654146
159 1 11.3491 14.3264 1.24909 -0.265735 -1.65506 -3.98071 0.152693 -4.02912 0.00493878 0.281798 0.0398253
62 1 1.43944 18.5161 -0.304047 0.272627 0.831543 -0.200207 0.116426 -3.98734 0.410171 0.3652 -0.396146
64 1 4.38586 18.6552 -0.299754 1.24428 1.0664 2.86252 5.20759 -3.98409 0.00917216 -0.677151 -0.0842556
163 1 2.94245 17.1558 1.08088 0.341627 2.40032 0.506019 0.396917 -4.00026 0.372411 0.0782713 -0.179081
171 1 0.141802 19.9783 1.28738 -0.0590841 -1.37942 4.27312 0.172102 -4.08933 -0.521953 -0.179918 -0.16604
173 1 2.89555 19.9823 1.16622 0.785649 -1.23368 2.3689 0.147176 -4.06652 -0.64838 0.0593813 0.229009
66 1 7.24355 18.6165 -0.300553 2.75597 -4.35103 0.905848 5.47708 -4.10484 -0.508453 0.233208 -0.0112333
67 1 8.57677 17.1461 -1.85621 -4.30079 -3.56988 1.31798 0.0495648 -4.10662 -0.405504 -0.26608 -0.228344
165 1 5.78304 17.093 1.12089 1.97311 1.99329 -0.167527 0.240973 -4.0053 -0.390541 0.503086 0.139816
167 1 8.56005 17.078 1.06631 1.63712 1.01306 -0.622391 4.68626 -4.05578 -0.113701 -0.402523 0.429772
175 1 5.70632 20.007 1.19276 -3.42076 -2.85137 2.01629 0.134497 -4.01363 0.544462 0.0440947 0.203914
177 1 8.58858 20.043 1.40301 -1.05917 0.80188 -0.731301 0.993028 -3.97883 0.103138 -0.732009 -0.689006
75 1 5.71713 19.9361 -1.87135 -4.53949 -0.9021 2.29786 0.130295 -4.02254 -0.0955965 -0.119731 -0.910114
65 1 5.67248 17.193 -1.83236 -1.31158 -3.63153 -0.620776 0.333872 -4.06417 0.374711 0.00803831 -0.0137621
161 1 14.1852 17.2046 1.29274 -8.06951 -0.86164 0.0732044 0.216599 -4.08881 -0.299143 -0.207376 -0.223118
68 1 9.83757 18.5862 -0.273596 1.01621 0.95189 3.77626 5.27321 -4.06779 0.914016 0.50081 0.0950391
70 1 12.7582 18.5098 -0.314981 -2.75978 -0.241021 0.901339 0.156817 -3.9499 0.406258 0.176872 -0.32213
169 1 11.4357 17.1907 1.18198 -0.050047 0.778513 1.36961 0.110619 -4.01307 -0.22582 0.227538 0.321138
179 1 11.4548 19.9395 1.26934 0.478562 4.61523 -0.247094 0.248785 -4.04814 -0.059044 0.028659 -0.488689
69 1 11.3235 17.1806 -1.77286 2.51938 -0.439877 2.89062 0.21695 -4.02009 0.158338 -0.101511 -0.419053
71 1 14.189 20.001 -1.76604 -3.02828 1.71166 0.793185 0.303405 -3.90707 -0.348176 -0.60244 -0.146097
61 1 14.2026 17.0274 -1.80727 -2.79754 0.110739 5.17862 0.295637 -3.97438 -0.0686071 0.0596766 -0.109266
72 1 1.54936 21.3951 -0.399522 2.3338 -3.4761 -2.56089 0.175693 -4.09116 0.0449938 -0.215255 -0.203711
74 1 4.24289 21.3195 -0.267071 -0.775897 2.76848 -0.309503 0.367229 -4.14438 0.370716 -0.20047 -0.199945
82 1 1.5098 24.075 -0.473567 -0.197856 1.54937 -4.05427 0.292392 -4.07067 -0.35581 0.609194 0.0762563
84 1 4.24694 24.1216 -0.323964 1.75243 2.83472 -4.12876 0.394609 -3.98024 0.36037 0.558622 -0.215566
181 1 0.128659 22.763 1.12943 -3.03311 -1.67311 -0.629939 0.0471118 -4.05694 0.145866 -0.603822 -0.0535038
183 1 2.89382 22.7594 1.08614 0.572942 -1.11899 -0.365379 0.160115 -4.08632 -0.300205 0.127031 0.556063
76 1 7.14056 21.2635 -0.350698 -0.691281 0.193514 1.05787 5.2684 -3.92927 0.0662565 0.543972 -0.00887962
86 1 7.25436 24.2668 -0.34802 -2.43118 3.29649 -1.15762 5.58229 -3.92066 -0.00842095 -0.564237 -0.301709
185 1 5.72509 22.8979 1.09131 3.67767 -2.14848 -3.35625 0.470342 -4.04302 0.16027 -0.748612 0.00745048
187 1 8.47118 22.692 1.26593 -0.732136 -0.532565 -1.73565 0.587384 -4.02942 0.532092 -0.0406407 -0.247148
78 1 9.92402 21.3232 -0.407251 -2.14879 -1.2859 1.20999 0.221481 -4.04146 0.203118 0.0623006 0.829407
80 1 12.7264 21.3466 -0.330872 -2.02506 0.894117 1.33119 0.0642045 -3.98964 0.705614 0.112148 -0.20741
88 1 9.99398 24.1702 -0.306485 -1.34963 2.3224 -3.76156 0.202646 -4.04089 -0.0446846 0.0663789 0.330384
90 1 12.8226 24.1983 -0.440959 -3.32555 -1.34099 0.789537 0.180718 -3.98903 -0.764234 -0.160487 0.112207
189 1 11.404 22.6532 1.11101 1.1462 2.87937 3.03823 0.287578 -3.94981 0.312271 0.684778 0.0740021
92 1 1.49183 27.0716 -0.36158 -1.55268 0.823337 -0.21304 0.068924 -3.99956 -0.412447 -0.121581 0.0592205
93 1 2.95679 25.6072 -1.86102 -2.98218 -1.24306 2.03838 0.169228 -4.02416 0.0840091 0.0316991 -0.180289
94 1 4.31233 27.0701 -0.200709 -2.42482 -0.468398 -1.32983 0.673322 -3.97166 -0.319916 -0.0554659 -0.270181
193 1 2.87926 25.4829 1.10122 -1.0862 0.475835 1.41936 0.411946 -3.97591 0.107493 0.740504 -0.000115709
5 1 5.72241 28.2956 -1.79895 2.69086 -0.906142 0.0342517 5.02888 -4.01952 -0.040383 0.369179 -0.788612
107 1 8.62684 28.3911 1.21036 1.62718 -2.83475 -3.52836 0.295849 -4.08172 -0.431243 1.1733 -0.39455
96 1 7.19496 27.0059 -0.359322 3.8854 -2.09663 -3.2721 0.0381198 -4.07081 -0.215429 -0.0625357 0.490833
195 1 5.7699 25.6353 1.11651 -1.7019 -1.17403 1.74296 0.131788 -3.98252 -0.0136425 -0.149263 0.320808
197 1 8.65402 25.6862 1.17027 -0.592902 -0.620959 0.00800132 0.320396 -4.07004 -0.611021 -0.350144 0.325384
7 1 8.51249 28.4072 -1.77748 0.305773 -1.36188 3.04787 0.3378 -4.00717 -0.0154638 0.0332963 -0.691452
191 1 14.1954 25.5315 1.1259 -0.0885336 -4.4938 -0.48509 0.207677 -3.94752 0.711456 0.176189 -0.517818
98 1 9.85719 27.0277 -0.40437 2.60699 4.64685 0.62246 0.396991 -4.11433 0.865948 0.0340569 0.182111
100 1 12.8111 27.1397 -0.348501 0.688756 2.41483 -3.36628 0.110473 -4.01198 -0.0416842 -0.222013 0.0872888
199 1 11.3947 25.7747 1.17187 -1.77748 -0.753815 0.440887 0.582286 -3.96676 0.151884 -0.363498 -0.194585
99 1 11.3966 25.6653 -1.81756 -3.11862 -0.640777 0.494149 0.139287 -4.04205 0.101901 -0.193034 -0.00827155
102 1 1.43258 1.58866 2.7273 7.38627 -3.29026 1.48818 0.295193 -4.06911 0.425935 0.219591 -0.116554
104 1 4.40471 1.70471 2.63596 -2.62904 -0.431866 -2.50035 0.229669 -4.02044 -0.7123 0.130504 -0.230892
202 1 1.64591 1.56967 5.63764 2.02744 3.5456 -1.59179 4.56284 -4.0525 -1.0325 0.700695 0.260194
203 1 2.94499 0.259696 4.18398 -1.3304 -3.48688 0.0854903 0.128569 -4.08013 0.257704 0.0507177 -0.351193
204 1 4.18458 1.68524 5.71982 -0.935437 1.48785 2.63114 4.48111 -4.03008 1.16832 -0.635228 -0.355221
213 1 2.88677 3.08084 4.14931 -2.28947 -0.845795 -1.07431 0.351523 -4.06475 0.0556286 -0.145878 0.0887153
106 1 7.15632 1.63052 2.62071 0.736671 -1.16949 0.0239501 0.239407 -4.09946 0.409856 0.442571 0.494625
205 1 5.64874 0.299036 4.04791 2.33469 0.995414 0.291621 4.60673 -3.95516 0.466565 -0.73695 0.998307
206 1 7.2548 1.68985 5.68084 -1.46106 -1.55409 1.7364 4.74455 -3.99473 -0.141023 -0.602271 -0.0356773
207 1 8.58474 0.236208 4.26072 1.31666 3.04051 1.49325 0.149441 -4.00422 0.0276084 -0.0393172 -0.636166
215 1 5.78167 2.95842 4.31372 -1.49422 -2.50707 3.51511 0.519333 -4.01144 -0.00700372 0.464828 -0.409996
217 1 8.60442 3.0921 4.20742 -1.80041 2.92479 -5.24384 0.121802 -4.05475 -0.30813 -0.197099 0.30519
201 1 14.2143 0.277593 4.2644 -0.76465 1.66164 -3.30675 0.317912 -4.05381 -0.383685 0.0756341 -0.0582704
211 1 14.1953 3.09372 4.31888 0.131749 -3.47244 0.658656 0.267438 -4.00645 0.503695 -0.745602 -0.45806
108 1 9.98023 1.81548 2.74912 1.78008 -0.0382443 0.481447 5.52433 -3.95342 0.137115 -0.806904 0.0986311
110 1 12.7567 1.63776 2.65812 0.143622 0.261967 0.471904 0.160437 -3.93653 0.254657 0.355552 0.359688
219 1 11.4042 3.08595 4.23247 2.96876 -3.6 -0.306264 0.0656966 -3.98699 0.166324 -0.169973 -0.0316486
112 1 1.47335 4.44722 2.81173 -2.08488 5.53109 1.88305 0.238163 -3.98949 0.442513 0.838925 -0.0922937
114 1 4.45714 4.53943 2.82426 0.408107 -1.46821 1.68028 5.09473 -4.06365 -0.364185 -0.621715 0.00201849
122 1 1.5387 7.19477 2.7786 -2.178 2.10286 -1.52883 0.26609 -3.9382 -0.572676 0.025716 -0.377709
124 1 4.30599 7.3213 2.75573 -1.70609 -0.894295 0.386355 0.158351 -3.9695 0.161521 0.489377 0.148082
223 1 3.00176 5.86832 4.27227 -2.9209 -3.41332 -1.19244 0.119923 -4.05992 0.303296 -0.104763 0.147526
116 1 7.08446 4.43511 2.75616 -0.717838 -0.661302 1.69127 5.19549 -4.05204 0.387946 0.556072 0.120407
126 1 7.33953 7.39572 2.73496 1.37971 -3.46356 0.697126 0.492884 -3.94229 -0.464694 -0.597135 -0.00416196
216 1 7.15048 4.45322 5.63907 0.663868 1.20315 1.59813 0.337909 -4.09289 -0.109915 0.458855 0.258162
225 1 5.7941 6.05956 4.18652 0.299468 -1.75276 -1.18853 0.622025 -4.00496 -0.149742 -0.447969 0.383346
227 1 8.61587 5.8789 4.19315 -0.532809 -0.371899 0.126652 0.133516 -4.0114 -0.297537 -0.177287 -0.0128869
221 1 14.1524 5.86373 4.28643 0.796103 -1.93786 -0.0692733 0.128001 -4.04068 0.287987 0.299435 -0.296226
118 1 10.0291 4.4796 2.71889 -2.00022 0.251406 -1.34662 0.102607 -4.08886 -0.115934 -0.0293992 -0.612352
120 1 12.7727 4.51546 2.65458 -2.93314 -0.0391201 0.674702 0.113932 -4.05638 -0.214192 -0.0340551 0.196402
128 1 10.0124 7.32217 2.66989 -2.7644 2.28321 3.1472 0.129459 -4.07186 -0.673214 0.325867 -0.113743
130 1 12.7448 7.26336 2.67583 -1.8326 -3.86476 -3.53257 0.163267 -4.07036 0.467965 -0.0352483 0.326652
218 1 9.92391 4.44006 5.75226 2.54663 2.02038 1.45237 0.08847 -4.07641 0.487977 -0.190754 0.136213
220 1 12.7806 4.44772 5.74401 -0.879614 -1.25736 1.20844 0.0637396 -3.95021 -0.0340485 0.181486 0.433266
229 1 11.2652 5.91426 4.2661 0.58398 1.74186 -1.1864 0.301064 -4.05892 0.792521 -0.0595463 0.101182
230 1 12.8446 7.35538 5.6687 2.31232 0.678649 1.21522 0.276153 -4.02173 -0.57371 -0.771725 0.101957
132 1 1.49806 10.2454 2.63584 0.926583 1.77752 2.20689 0.203199 -4.00724 0.22761 -0.493978 0.231633
134 1 4.33421 10.2257 2.77379 -1.95039 -2.01599 -1.69927 0.278789 -3.98748 -0.111443 -0.347206 -0.00389773
233 1 2.86938 8.7146 4.28904 -0.683116 0.194601 5.31636 0.145788 -3.97213 0.410224 0.270013 -0.421038
234 1 4.30212 10.2221 5.75018 -0.621179 0.157015 -0.123602 5.35492 -4.03163 0.609864 -0.428466 0.271821
241 1 0.149986 11.5192 4.18795 -2.41095 0.904273 -0.0212207 0.0928995 -4.04632 0.108025 0.281107 0.124979
243 1 2.87755 11.525 4.13483 -0.234391 0.744033 0.670144 0.247395 -4.01717 -0.225254 -0.213754 0.289021
136 1 7.34978 10.1327 2.75101 0.629619 0.98562 1.20116 4.9377 -4.07167 -0.632045 0.478885 -0.447062
235 1 5.87066 8.81598 4.15895 0.465343 -1.43871 1.4062 0.382878 -4.03787 -0.805532 -0.703805 0.044278
237 1 8.63235 8.75913 4.38358 2.56455 0.935182 0.542097 0.372049 -4.10779 -0.321473 0.0476427 -0.349727
245 1 5.87987 11.5851 4.22407 0.240801 -0.541356 -0.243051 0.424106 -4.0266 -0.429245 -0.233938 -0.0368242
247 1 8.6244 11.498 4.33414 0.432483 -3.51449 2.45946 0.197824 -4.09922 -0.108344 0.380658 -0.0943845
231 1 14.2058 8.74973 4.18692 -0.187028 1.52542 1.17023 0.0865443 -4.0775 0.567845 -0.142692 -0.0837125
138 1 9.92992 10.142 2.68346 -1.64946 -2.47072 4.24093 5.18294 -4.11616 0.752977 -0.0196323 0.35958
140 1 12.8378 10.2224 2.6917 -3.06779 0.590986 0.953237 0.194614 -4.08622 -0.571907 -0.466268 0.500197
239 1 11.364 8.67474 4.19435 1.07823 -1.10089 5.00007 0.0994428 -4.06943 0.48586 -0.0286669 -0.176273
240 1 12.788 10.0949 5.59808 0.473313 1.12475 -2.36237 0.382232 -3.95935 0.227147 0.298726 1.06702
249 1 11.3994 11.5636 4.32326 0.00818624 4.09037 -1.73351 0.25139 -4.05117 -0.283517 -0.131102 -0.061086
142 1 1.52181 13.0509 2.79547 -1.28477 -4.17543 2.9049 0.354906 -4.07633 -0.104413 -0.0161205 -0.247172
144 1 4.29805 12.8216 2.62537 1.81958 -2.20134 0.0142737 4.83907 -4.01516 0.864048 0.901964 0.532432
152 1 1.51339 15.8576 2.77099 -0.669006 2.84052 -0.820189 5.27962 -4.12471 0.520358 -0.777803 -0.555482
154 1 4.25725 15.7179 2.68374 2.46855 -1.35996 -1.82568 0.307057 -4.01874 0.763301 0.43029 -0.148555
242 1 1.53992 12.9165 5.71891 0.280113 3.4737 -1.1283 0.121421 -4.09211 0.437638 0.032222 0.151903
244 1 4.24982 12.7782 5.74615 2.14938 -0.0921022 -0.749942 5.27263 -4.03925 0.00841407 0.280915 -0.000291901
251 1 0.128475 14.4623 4.28881 2.68999 -0.1114 0.508103 0.226289 -4.01958 -0.312147 0.00394741 -0.154755
252 1 1.63436 15.7834 5.6293 -3.12021 0.366244 0.726554 0.476582 -3.98027 0.280046 -0.177935 0.542723
253 1 3.02926 14.3678 4.26299 0.643288 -2.70259 -2.00417 0.357452 -3.99998 -0.219306 -0.279277 -0.232932
146 1 7.13468 12.9886 2.69844 1.04428 0.1527 -2.62964 0.132355 -3.89772 0.422054 -0.689344 0.0572347
156 1 7.1141 15.8395 2.72599 -5.45427 -4.00032 2.42238 0.293809 -4.02464 2.20039e-05 -0.245466 0.0609067
255 1 5.79332 14.3612 4.17819 0.949383 2.2935 -3.25327 0.180198 -4.04215 -0.460562 0.179328 0.494561
256 1 7.19239 15.8423 5.65143 -0.861153 0.781607 -0.146585 0.382286 -4.04498 0.130569 -0.458104 0.0603807
257 1 8.60857 14.4287 4.27983 -2.00567 3.54744 2.76289 0.0739687 -4.02213 -0.0750654 -0.654033 -0.301196
148 1 10.0789 12.8625 2.79801 2.53119 -0.204599 1.59625 5.17646 -3.9947 -0.725905 0.4127 0.152658
150 1 12.8144 12.9078 2.76337 0.842405 -1.04171 -0.584461 0.159047 -4.09306 0.637786 0.441412 -0.090865
158 1 10.0599 15.8093 2.78059 1.95172 -4.28031 -2.67566 0.257862 -3.99346 -0.298245 -0.175625 -0.25157
160 1 12.7974 15.8078 2.67887 2.05154 2.79304 -0.0709358 0.194897 -4.03213 -0.243707 -0.185995 0.846639
250 1 12.9049 12.9601 5.69769 1.45982 -1.9964 -1.75047 0.265452 -4.05812 -0.217011 -0.480794 -0.0331357
259 1 11.5154 14.2983 4.22248 2.36546 0.76793 -0.871017 0.267817 -4.05358 -0.372 0.275124 0.150312
162 1 1.61205 18.4318 2.71148 0.103087 0.473685 0.329909 4.99792 -4.03337 -0.368506 0.345597 0.0888961
164 1 4.41893 18.6151 2.59549 -0.211573 3.22505 -5.20284 0.348857 -4.02481 -0.4988 -0.534083 -0.0437727
262 1 1.64124 18.6991 5.73462 -1.57751 0.894061 -4.43727 5.00881 -4.06262 -0.608401 -0.246291 0.168759
263 1 3.02324 17.1738 4.20892 -2.37006 -0.133771 0.32695 0.265267 -4.06315 0.13393 0.186743 0.334121
271 1 0.239882 19.931 4.11571 -2.9132 -1.24747 -1.34561 0.599992 -4.03952 0.00763508 0.115859 -0.0769298
273 1 3.06119 20.0027 4.22526 0.40391 -0.0741893 3.19324 5.39322 -4.04531 -0.480975 0.592474 -0.17471
166 1 7.16241 18.5363 2.69288 0.698547 0.150344 -2.49931 0.178792 -4.08986 -0.230654 -0.376628 0.0959312
265 1 5.71847 17.1429 4.34646 -1.6126 -0.82668 -3.54668 0.438955 -4.05065 -0.380799 0.164642 -0.0608306
266 1 7.25348 18.553 5.65269 1.95445 3.37989 -0.145865 0.551323 -3.96978 -0.38455 0.152921 0.194052
267 1 8.63962 17.1234 4.14936 1.62128 1.24999 -1.44411 0.266072 -4.00759 -0.223522 0.030247 0.588774
275 1 5.66392 19.9514 4.23164 0.0670137 -1.38317 -3.87798 5.08109 -4.0413 0.627475 0.351639 0.38434
277 1 8.52362 20.0544 4.22078 0.898333 -0.0775842 -0.479706 0.256023 -4.07267 0.481982 0.210154 0.334305
261 1 14.1769 17.1487 4.30285 3.22524 -0.724689 1.23685 0.356005 -4.07711 0.0485227 0.493716 -0.0868811
168 1 9.9888 18.5753 2.73626 -3.61858 0.233632 -1.83299 0.208635 -4.00417 -0.355512 -0.285653 -0.161652
170 1 12.8038 18.6463 2.84358 0.900172 4.64776 -2.52583 0.332834 -4.05819 0.183378 -0.592493 -0.161678
269 1 11.4148 17.1891 4.41007 1.22914 3.37173 -1.05524 0.397105 -4.02185 0.485166 0.513777 -0.866616
270 1 12.909 18.7314 5.73995 -1.75346 -1.91228 -0.862528 0.534471 -4.01584 -0.648237 -0.0463505 0.294943
279 1 11.3598 20.0486 4.19864 2.0114 -4.45816 0.994583 0.267279 -3.98951 -0.471721 -0.205491 0.586157
172 1 1.47279 21.4257 2.7394 2.33301 -0.225112 2.95214 0.275787 -4.04638 0.650975 0.0741122 -0.315241
174 1 4.32705 21.4567 2.58431 -1.27528 -0.710527 -1.51037 0.275552 -4.05335 -0.290487 -0.249951 0.169875
182 1 1.5749 24.1646 2.69123 -0.784188 -3.79054 -2.16947 0.0649913 -4.0758 -0.653807 0.196236 0.127761
184 1 4.3073 24.238 2.64805 -0.587332 0.565944 -1.32797 0.144728 -4.0377 0.329847 -0.203988 -0.109386
272 1 1.50093 21.4332 5.65859 -1.3891 0.701157 2.48604 0.373892 -4.09337 0.313103 -0.0728163 0.803077
281 1 0.183488 22.7914 4.28574 -2.74019 0.616667 0.622568 0.157206 -3.97883 -0.472776 0.217933 -0.401716
283 1 2.92311 22.8102 4.30372 1.18139 2.06881 4.32688 0.178127 -3.98667 0.908859 -0.167094 0.0828968
176 1 7.06694 21.3141 2.76034 -3.95137 -1.5893 -1.01736 0.393326 -4.03889 0.230891 0.137753 -0.590486
186 1 7.17879 24.1447 2.59785 2.78581 2.06017 1.88695 0.192695 -3.95575 0.0441192 1.03731 0.268235
285 1 5.85589 22.7635 4.09516 1.31531 1.02106 -0.50399 0.547457 -3.97914 -1.14916 1.07512 0.570843
287 1 8.6565 22.7436 4.14154 2.42 3.87829 -0.705154 4.82583 -4.15258 -0.301711 0.656857 0.362291
178 1 9.99102 21.4199 2.65282 -1.13098 -1.50552 3.15931 0.245995 -4.06087 0.836136 -0.293941 0.0673062
180 1 12.8404 21.4228 2.78645 -0.471497 0.0061306 0.269058 0.297795 -4.15752 0.0692432 -0.0169015 -0.0129208
188 1 10.0407 24.0693 2.54604 -1.30348 -2.27273 0.479064 4.7294 -3.94263 -0.0583321 1.12827 0.0903184
190 1 12.925 24.1389 2.66318 -1.55903 -2.12372 1.13416 0.401549 -3.95016 -0.832624 0.426295 0.288661
280 1 12.8739 21.3633 5.67277 1.61778 1.13426 1.57654 0.296282 -4.09366 -0.197737 0.245601 0.0187708
289 1 11.3072 22.8471 4.22619 -3.96248 4.07387 -0.259648 0.491908 -4.06419 0.0171947 0.0409554 0.361119
290 1 12.8777 24.1232 5.72919 1.06046 -1.98762 3.24564 0.237837 -4.05983 -0.409793 0.267915 0.506443
192 1 1.54582 26.9795 2.7243 0.832332 -0.820942 0.130328 0.147657 -4.09615 -0.022129 0.0801494 0.188891
194 1 4.33343 27.1078 2.66658 -1.61671 -3.20912 1.28134 0.251399 -4.02722 0.0914075 -0.409482 -0.767427
291 1 0.123486 25.6243 4.34447 -1.91934 -0.395923 -0.219087 0.385844 -3.98016 -0.192024 -0.431997 -0.417323
292 1 1.58125 27.1181 5.64404 0.521729 -0.104332 -0.21211 0.271134 -4.09129 -0.300726 -0.863167 0.29337
293 1 3.0799 25.6086 4.19804 2.80973 1.17343 -0.298043 5.72141 -3.9683 -0.968034 -0.154525 0.267626
294 1 4.2495 27.1204 5.72169 -1.17778 2.9951 1.58236 0.252555 -4.01368 0.725148 -0.0880121 -0.193682
196 1 7.3038 27.0489 2.80919 3.37805 -2.98627 4.17109 4.81641 -3.98121 -1.04306 0.128006 -0.882096
295 1 5.73558 25.636 4.17705 2.43808 0.681994 -1.51506 0.159021 -4.04735 0.283679 -0.0758622 0.030159
296 1 7.17419 27.0665 5.6338 0.309675 6.50899 -1.89168 0.249052 -3.95183 -0.237674 0.723487 -0.358372
297 1 8.56397 25.5256 4.22382 -0.134748 1.31643 -3.31811 0.349434 -4.04905 0.84466 0.357216 -0.287186
209 1 11.3537 28.3011 4.29127 -0.393176 -1.47754 0.78913 5.76954 -3.92812 0.408496 0.421163 -0.481613
198 1 9.95313 27.0869 2.60419 0.689763 -0.698924 -1.31982 0.307924 -3.89325 0.37286 -0.22852 1.0308
200 1 13.0099 27.0067 2.65844 5.30296 -0.270392 0.651806 5.39799 -3.96327 -0.44079 -0.0278612 0.535275
299 1 11.357 25.6421 4.26666 0.613569 6.18239 1.53807 6.09261 -3.95136 0.284992 -0.290264 -0.295229
301 1 0.190771 0.330155 7.14363 0.5675 -0.168496 -2.46061 4.82903 -4.09057 0.281917 -0.296872 0.348996
302 1 1.52998 1.64637 8.93022 -1.42736 -3.15682 0.972455 0.295965 -4.04395 -0.0693873 -0.279849 -0.325552
303 1 2.87995 0.257353 7.29862 0.341516 -0.0404191 -2.60214 0.184323 -4.07754 0.110931 -0.665985 0.25873
304 1 4.29008 1.6221 8.77038 -4.04083 -0.468429 4.02966 0.154142 -3.98976 -0.112563 0.690155 0.449182
311 1 0.149724 2.85167 7.29026 -1.74976 0.28104 0.763369 5.11442 -3.97538 -0.020809 1.1252 -0.219741
313 1 2.89377 2.99568 7.1761 0.148637 -0.416692 -0.495992 0.348549 -3.96344 -0.268733 0.384539 0.92894
305 1 5.63949 0.272746 7.29427 -2.6762 0.601797 -1.53878 0.273888 -3.93779 0.704844 0.325039 -0.713597
306 1 7.16827 1.7968 8.79996 -0.497955 1.38302 -0.554626 0.425595 -3.93213 -0.142472 -0.795158 0.258513
307 1 8.54451 0.339894 7.33897 2.06573 -1.47317 -0.377265 0.322115 -4.05416 -0.125622 -1.00622 0.0790299
315 1 5.88369 2.98404 7.21005 0.746495 3.22544 0.384377 0.623445 -4.03002 -0.807941 0.38268 0.0785894
317 1 8.5575 3.091 7.21133 0.877774 1.33708 0.284955 0.0751032 -4.15868 -0.545882 0.167421 -0.0851845
208 1 9.93587 1.5992 5.77073 -2.11946 3.54369 -4.60115 0.124397 -4.12985 0.461163 0.522822 0.00474084
210 1 12.7168 1.62492 5.79932 1.93469 -2.84729 3.21644 0.355577 -3.99953 0.130201 0.262344 -0.607812
308 1 9.85407 1.73124 8.75637 -3.32365 0.641461 0.348771 0.206032 -4.02503 0.20922 -0.262915 0.0555981
309 1 11.427 0.271834 7.33686 2.261 -0.338001 1.59023 0.148097 -4.02618 -0.112699 -0.059678 -0.290077
310 1 12.8338 1.67333 8.77778 -2.12593 2.9352 -1.91821 0.169117 -4.001 -0.312238 -0.206004 -0.0332256
319 1 11.2832 3.0542 7.29796 1.40137 -1.12676 -0.599603 0.108822 -4.06565 0.985539 0.266381 0.00978633
212 1 1.5107 4.56417 5.77695 1.71349 1.1107 -0.37813 0.380476 -4.05642 0.234078 -0.496848 0.0376018
214 1 4.35594 4.34938 5.79522 -3.60792 0.888428 1.10906 4.85317 -4.02924 0.064484 0.414469 -0.594622
222 1 1.54559 7.23945 5.75532 2.60978 -1.28947 -2.65909 0.157148 -4.06854 -0.55078 -0.41756 -0.126458
224 1 4.45542 7.31972 5.79151 2.28078 -2.16034 3.83898 0.298015 -4.00738 -1.03671 0.210045 -0.6816
312 1 1.51633 4.46751 8.73319 6.58074 -1.87872 -2.48992 0.246203 -4.05468 0.124033 0.0042709 -0.0249845
314 1 4.38482 4.47065 8.84889 1.38421 -0.500902 1.94911 0.154904 -3.97666 -0.193746 0.0228165 -0.245507
322 1 1.50912 7.24612 8.7193 2.77664 -2.04083 2.3912 0.11068 -4.03949 0.0152444 -0.410697 0.224857
323 1 3.05231 5.91185 7.22418 -1.31866 2.39502 -0.268551 0.263036 -4.00854 -0.411619 0.0246638 0.255784
324 1 4.3708 7.29584 8.74713 1.4459 0.563605 -1.51929 0.125371 -4.04867 -0.0195471 -0.219926 -0.344767
226 1 7.22143 7.27669 5.75812 -1.92098 2.73055 -2.00716 0.111004 -4.08868 0.104293 0.0313596 0.0778139
316 1 7.10763 4.57462 8.78546 2.31643 -3.52172 -0.258836 0.356782 -4.05969 -0.414071 -0.732624 0.246596
325 1 5.76431 5.8264 7.16618 -2.43851 2.57701 -2.10025 0.251719 -4.02637 0.266589 0.248537 0.599044
326 1 7.19795 7.24786 8.69845 -1.71798 -0.00966545 0.572563 0.257598 -4.08239 -0.667835 0.498454 -0.320269
327 1 8.55272 5.78657 7.36866 -1.12912 -0.410511 1.0442 0.517153 -4.02939 0.104555 0.1023 -0.539181
228 1 9.92162 7.27115 5.83762 0.0778168 -0.255412 1.79302 0.259632 -4.05355 0.0331835 -0.163087 0.00271486
321 1 14.1448 5.82456 7.26335 4.06995 0.134137 -0.309495 0.19914 -4.01998 -0.0524794 0.353391 0.0472146
318 1 9.98504 4.43593 8.75101 1.75132 -4.65897 3.2673 0.0878209 -4.05097 -0.246819 0.584471 0.381178
320 1 12.7757 4.48205 8.75779 1.89733 -3.11783 2.82706 0.186814 -3.99682 0.480943 -1.04913 0.370335
328 1 10.0129 7.28399 8.63307 2.65819 -0.927283 -2.4793 0.484561 -4.01758 0.401918 0.339122 0.564126
329 1 11.4291 5.87426 7.24614 1.9858 -1.38951 -0.786356 0.0725629 -4.04951 -0.025058 0.150254 -0.487982
330 1 12.8425 7.28945 8.77912 -1.97867 0.420953 -1.07444 0.0938467 -4.10396 -0.230708 -0.29838 0.418883
232 1 1.56015 10.1641 5.77189 2.12226 0.0705619 -0.681687 0.21213 -4.07151 -0.294294 0.120951 -0.311224