ITEM: TIMESTEP
26750
ITEM: NUMBER OF ATOMS
2000
ITEM: BOX BOUNDS pp pp pp
1.0838953229856951e-01 1.4221610467701321e+01
2.1677906459713903e-01 2.8443220935402643e+01
-3.2149919084976930e-01 5.7641499190849331e+01
ITEM: ATOMS id type x y z vx vy vz c_csym c_peratom fx fy fz
2 1 1.62332 1.66863 1.13498 -0.282889 -3.25185 -0.636516 0.277331 -4.10228 -0.589244 -0.165097 -0.393475
4 1 4.35789 1.61575 1.06462 0.990702 -5.33602 3.45801 0.218298 -4.13979 0.360691 0.0180099 0.895225
11 1 0.115605 3.14255 -0.274682 0.617832 -0.194419 3.50607 0.203233 -4.06441 -0.114732 -0.11275 -0.0132551
101 1 0.126621 0.284403 2.55021 -1.57173 1.46596 2.1275 0.151518 -4.10512 -0.0897348 -0.20238 -0.264599
103 1 2.85007 0.270771 2.60833 0.287695 0.367304 -1.8153 0.237061 -4.00258 0.794287 -0.171057 -0.269669
111 1 0.168447 3.08626 2.57601 -2.2925 0.592843 0.179022 0.13021 -4.14894 -0.121349 -0.190698 0.0149317
113 1 2.87763 3.13123 2.63012 -1.71434 2.42111 -1.1208 0.325958 -4.078 0.185605 0.334814 -0.00312978
13 1 2.94284 3.10367 -0.302952 -0.0706192 -1.95523 0.774801 0.0715873 -4.03461 0.00413354 -0.212851 -0.171122
6 1 7.17995 1.58532 1.12839 -1.53139 -1.81767 -2.43971 0.224801 -4.10306 0.176089 0.463727 0.201219
17 1 8.63608 3.25517 -0.254017 -1.24355 -0.0988133 -0.860341 4.9102 -4.05899 -0.406598 -0.967856 -0.530393
105 1 5.90739 0.22905 2.57743 0.812795 -1.48127 -4.16198 0.293588 -4.08039 -0.855505 -0.289861 -0.0568432
115 1 5.79048 3.13764 2.56305 -0.932742 0.818202 0.0439582 0.179429 -4.04601 -0.0129298 -0.679353 0.304007
117 1 8.60233 3.08029 2.6414 0.475293 0.415756 -1.302 0.157251 -4.06511 -0.352587 0.295581 -1.18103
15 1 5.86915 3.09703 -0.265811 -1.1078 -3.23994 -0.243916 0.287786 -4.01723 -0.0775495 0.310297 -0.570012
8 1 9.98472 1.71462 1.01599 1.02028 2.64764 -1.65962 0.370759 -4.05451 -0.508471 -0.228779 1.37868
9 1 11.3244 0.287262 -0.223653 -0.628437 1.37052 0.162777 0.380429 -4.04871 0.953536 -0.0540735 -0.386736
10 1 12.8557 1.68831 1.06513 -0.261261 2.58464 0.684826 0.129918 -4.03568 -0.526854 0.367556 0.584595
109 1 11.3921 0.306018 2.54827 4.17545 -4.26001 3.01885 0.166206 -4.0894 -0.478061 -0.539194 -0.0435142
119 1 11.4562 3.11085 2.49555 -0.877516 0.612354 1.13148 0.14892 -4.11135 -0.164682 -0.200369 0.300144
12 1 1.52356 4.6359 1.03536 1.18436 1.40208 1.05812 0.555015 -4.05621 -0.0155171 -0.292026 0.54169
14 1 4.34915 4.42365 1.22559 -0.761965 1.11821 -1.53086 0.26852 -4.10011 0.086978 0.51447 -0.511603
22 1 1.54026 7.32431 1.06194 0.529166 1.27637 -0.648244 0.234771 -4.0437 0.162946 -0.1738 0.624637
23 1 3.01689 5.92797 -0.29467 4.21453 0.286138 -0.65637 0.221146 -4.04688 -0.411941 -0.151535 0.0767987
24 1 4.35552 7.36387 1.1301 0.718611 1.41969 0.425215 0.104799 -4.02996 -0.170946 0.223403 0.325231
121 1 0.132435 5.82793 2.56925 -2.35864 3.10392 -0.471262 0.182428 -4.03888 -0.128754 0.443967 0.106259
123 1 3.01618 5.86763 2.66174 1.00139 1.8653 -1.24788 0.251498 -4.13307 -0.544481 0.135382 -0.334757
16 1 7.14135 4.5226 1.20501 0.603539 0.154603 0.133915 0.149744 -4.05996 0.060174 -0.123227 -0.521629
25 1 5.70759 5.92495 -0.206981 -0.827089 1.1553 2.35682 0.310606 -4.14082 -0.431048 -0.477321 -0.578572
26 1 7.1412 7.16975 1.08198 -0.0337704 2.62343 0.778117 0.521075 -3.93521 0.166532 1.47714 0.843777
125 1 5.74127 5.95799 2.61132 -0.136011 -2.75282 -0.154075 0.13764 -4.19572 0.0466708 0.311729 0.245657
127 1 8.57446 5.88387 2.47982 -1.51658 -3.67076 0.00771245 0.349628 -4.0958 0.0384847 0.199184 0.837673
18 1 10.0587 4.47472 1.13153 2.01504 1.15568 0.108705 0.208268 -4.05535 0.161368 0.240877 0.193358
20 1 12.7939 4.54238 1.09886 -0.022531 3.00342 -1.17168 0.0582275 -4.12175 -0.306048 -0.0934228 0.531408
28 1 10.1169 7.35391 1.21816 1.08986 -1.21663 1.80841 0.396869 -4.02633 -0.717446 -0.529878 -0.133893
29 1 11.4127 5.98723 -0.304162 1.3822 1.47477 -0.555896 0.0533678 -4.12446 -0.232955 -0.654097 -0.528154
30 1 12.8531 7.28188 1.19057 0.362699 -0.519128 0.486825 0.134139 -4.14236 -0.410295 0.528751 -0.144565
129 1 11.3642 5.90889 2.61826 -0.995542 1.01394 2.2528 0.10714 -4.10753 0.451528 -0.220703 -0.45076
32 1 1.48279 10.1923 1.06439 2.66336 -1.18469 0.933482 0.214855 -4.12901 0.345213 -0.73643 0.457153
34 1 4.32744 10.195 1.06528 -3.42019 -1.92301 1.41173 0.182882 -4.07732 0.0140283 -0.365176 0.138803
43 1 2.92107 11.628 -0.299684 2.17426 0.782241 3.50485 0.112176 -4.09608 -0.353371 -0.950692 -0.198378
133 1 2.87707 8.77788 2.60171 -1.44944 0.975575 0.710255 0.08936 -4.07756 0.549964 -0.372141 -0.0321897
141 1 0.146359 11.6297 2.49045 -2.20193 -7.04944 -1.51669 0.296527 -4.11581 -0.14422 0.0014869 0.330535
143 1 2.92416 11.521 2.57875 -0.572232 1.1909 1.77002 0.158949 -4.12137 -0.537809 -0.0970264 -0.314259
36 1 7.17897 10.1662 1.1761 0.10168 3.47717 0.174941 0.160983 -3.99338 0.0520476 0.102714 -0.0998478
47 1 8.63625 11.4798 -0.221006 -1.46078 2.66256 0.234251 0.273916 -4.07301 -0.0424501 0.259892 -0.559041
135 1 5.71447 8.72482 2.67595 -0.880733 0.590278 -0.109653 0.278411 -4.09187 0.80951 -0.215477 -0.78103
137 1 8.61908 8.74613 2.51569 -4.19951 1.4167 -2.48788 0.347552 -4.11049 -0.249955 -0.145903 0.185044
145 1 5.78797 11.4174 2.58127 0.913579 -3.10787 0.676852 0.313568 -4.06755 -0.478146 0.862332 0.124647
147 1 8.63173 11.5707 2.68136 -2.52053 -2.66134 -2.016 0.181285 -4.08872 -0.034095 0.366668 -0.66019
37 1 8.64539 8.6808 -0.191929 -0.410704 1.96136 0.795798 0.350336 -4.13932 -0.59974 0.109499 -0.4629
41 1 14.1834 11.5242 -0.224831 -1.35835 -5.95404 3.83557 0.233687 -4.06468 0.00276408 0.660225 -0.495489
131 1 14.189 8.78043 2.69631 -1.59748 2.05417 3.03081 0.376776 -4.02112 0.520423 -0.290972 -0.577968
38 1 10.1092 10.2499 1.24282 0.647054 3.02786 -2.05404 0.490308 -4.0715 -1.13407 -1.14929 0.475058
39 1 11.3428 8.78317 -0.270407 2.80774 -0.622395 -1.00191 0.222976 -4.0952 0.933379 -0.398311 0.0935208
40 1 12.8549 10.1114 1.25988 -1.75728 -0.634733 -0.267602 0.231468 -4.10146 0.113743 -0.330159 -0.900247
139 1 11.4119 8.69776 2.66347 -0.425376 2.4171 -0.0430739 0.106199 -4.09769 -0.0114494 0.554747 -0.201584
149 1 11.4267 11.5446 2.66433 -0.904464 -0.906018 0.248794 0.171245 -4.07466 0.253211 0.200596 -0.51961
49 1 11.351 11.4979 -0.242481 -3.94296 -1.72452 -3.57845 0.141893 -4.04683 0.602833 0.115512 -0.274198
42 1 1.60077 12.9976 1.04825 -0.841826 -0.173751 0.753914 0.413629 -4.08277 -0.575683 0.403083 0.1696
44 1 4.30049 12.9516 1.0334 -1.17519 0.372824 -0.13007 0.104671 -4.15473 0.521496 -0.0780489 0.413134
52 1 1.58776 15.7356 1.27278 -0.585983 1.26946 1.71295 0.645496 -4.00872 -0.537939 -0.0826594 -0.992636
54 1 4.38463 15.6552 1.12683 0.269637 0.959657 1.9614 0.262825 -4.08735 -0.549259 0.448796 -0.390989
153 1 2.9946 14.2978 2.59159 -3.03426 -0.361765 3.65674 0.163526 -4.01044 -0.186222 0.388735 0.280617
46 1 7.13899 12.8477 1.10277 -0.042375 -0.703018 -2.37022 0.220186 -4.04213 0.0178172 0.520926 0.258167
56 1 7.08452 15.7726 1.04946 0.19616 0.505449 -1.21975 0.239537 -4.08624 0.101971 -0.385019 0.129732
155 1 5.76502 14.3443 2.53592 -0.699273 2.50818 -2.71856 0.102315 -4.10212 -0.101517 0.038954 0.180309
157 1 8.53251 14.4644 2.61816 1.77519 1.9958 -4.01974 4.922 -4.10944 0.257683 -0.737449 0.313369
57 1 8.49816 14.3386 -0.183968 5.27468 2.46447 0.151665 0.467671 -4.00368 0.133482 -0.276526 -1.16742
51 1 14.0057 14.3518 -0.321092 5.08997 3.62125 -2.07853 4.62277 -4.00983 1.28211 -0.288199 -0.0890459
151 1 14.2009 14.4155 2.5998 -4.71089 2.01634 -0.85659 0.118051 -4.02094 0.155192 -0.666731 0.0416871
48 1 9.93985 13.0563 1.15235 2.86016 2.34417 0.701272 0.266321 -4.08914 0.344519 -0.994221 0.270291
50 1 12.7181 12.9904 1.1497 0.559624 -1.36974 -0.820506 0.172294 -4.09104 0.0936265 -0.437318 0.239619
58 1 9.99316 15.7186 1.1347 -3.3381 -1.51398 5.38263 0.16459 -4.087 0.030437 0.355143 0.207914
60 1 12.7967 15.7437 1.14021 1.53771 1.90327 -4.70531 0.109885 -4.07781 -0.150028 0.208448 0.813488
159 1 11.3491 14.3264 2.64877 -0.265735 -1.65506 -3.98071 0.149483 -4.08276 0.594243 0.323712 -0.0661752
62 1 1.43944 18.5161 1.17494 0.272627 0.831543 -0.200207 0.114899 -4.04445 0.0712826 0.27122 -0.514364
64 1 4.38586 18.6552 1.17901 1.24428 1.0664 2.86252 4.99067 -4.03244 -0.46963 -0.695449 -0.466172
163 1 2.94245 17.1558 2.48914 0.341627 2.40032 0.506019 0.373481 -4.04039 0.369207 0.549322 0.435251
171 1 0.141802 19.9783 2.68511 -0.0590841 -1.37942 4.27312 0.163553 -4.13139 -0.116344 0.165269 -0.756787
173 1 2.89555 19.9823 2.57013 0.785649 -1.23368 2.3689 0.14266 -4.12437 -0.286237 -0.312454 0.53342
66 1 7.24355 18.6165 1.17826 2.75597 -4.35103 0.905848 0.357705 -4.17426 -0.799794 -0.288396 0.11213
67 1 8.57677 17.1461 -0.297965 -4.30079 -3.56988 1.31798 0.0495178 -4.15306 -0.100461 0.0314037 -0.0175055
165 1 5.78304 17.093 2.52712 1.97311 1.99329 -0.167527 0.233995 -4.0578 -0.454113 0.452287 0.130551
167 1 8.56005 17.078 2.47532 1.63712 1.01306 -0.622391 0.524805 -4.08378 0.423773 0.178007 0.966813
175 1 5.70632 20.007 2.59532 -3.42076 -2.85137 2.01629 0.130773 -4.06814 0.74002 0.0190247 -0.374337
177 1 8.58858 20.043 2.79483 -1.05917 0.80188 -0.731301 0.917851 -3.99967 -0.276842 -0.808081 -1.09002
75 1 5.71713 19.9361 -0.312336 -4.53949 -0.9021 2.29786 0.124858 -4.08058 -0.273309 0.313249 -0.55435
65 1 5.67248 17.193 -0.275334 -1.31158 -3.63153 -0.620776 0.323765 -4.11748 0.28768 -0.109693 0.218065
161 1 14.1852 17.2046 2.69019 -8.06951 -0.86164 0.0732044 0.205607 -4.14028 -0.197896 -0.28937 -0.769428
68 1 9.83757 18.5862 1.20384 1.01621 0.95189 3.77626 0.494832 -4.12489 0.650607 0.285087 0.0783109
70 1 12.7582 18.5098 1.16456 -2.75978 -0.241021 0.901339 0.153636 -4.02261 0.251013 0.342971 -0.60467
169 1 11.4357 17.1907 2.58508 -0.050047 0.778513 1.36961 0.107556 -4.07929 -0.411333 -0.0717391 0.337707
179 1 11.4548 19.9395 2.66799 0.478562 4.61523 -0.247094 0.241894 -4.1036 -0.237947 0.2963 -0.479093
69 1 11.3235 17.1806 -0.218872 2.51938 -0.439877 2.89062 0.203227 -4.09532 0.570177 -0.190232 -0.474593
71 1 14.189 20.001 -0.212404 -3.02828 1.71166 0.793185 0.290179 -3.97 -0.276321 -0.922276 -0.114902
61 1 14.2026 17.0274 -0.251521 -2.79754 0.110739 5.17862 0.283864 -4.03554 0.403369 0.0500013 -0.113015
72 1 1.54936 21.3951 1.08434 2.3338 -3.4761 -2.56089 0.16964 -4.14341 -0.208241 -0.333294 -0.376494
74 1 4.24289 21.3195 1.21003 -0.775897 2.76848 -0.309503 0.346968 -4.16906 0.345989 -0.0711207 -0.797952
82 1 1.5098 24.075 1.01408 -0.197856 1.54937 -4.05427 0.281312 -4.12744 -0.285944 0.425156 0.160698
84 1 4.24694 24.1216 1.15604 1.75243 2.83472 -4.12876 0.383094 -4.02155 0.655993 0.568517 -0.485047
181 1 0.128659 22.763 2.53522 -3.03311 -1.67311 -0.629939 0.0456373 -4.08633 -0.25373 -0.128841 0.0052131
183 1 2.89382 22.7594 2.49414 0.572942 -1.11899 -0.365379 0.146962 -4.11741 -0.0566395 0.323276 0.524797
76 1 7.14056 21.2635 1.13067 -0.691281 0.193514 1.05787 0.360208 -4.01044 0.29256 0.61355 -0.278154
86 1 7.25436 24.2668 1.13321 -2.43118 3.29649 -1.15762 0.395256 -3.96839 -0.352965 -0.410816 -0.261815
185 1 5.72509 22.8979 2.49905 3.67767 -2.14848 -3.35625 0.460153 -4.0942 0.458713 -0.817118 -0.105868
187 1 8.47118 22.692 2.66475 -0.732136 -0.532565 -1.73565 0.558787 -4.09114 0.614235 -0.269852 -0.739058
78 1 9.92402 21.3232 1.07701 -2.14879 -1.2859 1.20999 0.209329 -4.09897 -0.13308 0.122662 0.734891
80 1 12.7264 21.3466 1.14948 -2.02506 0.894117 1.33119 0.0629434 -4.04434 1.18025 -0.340752 -0.66085
88 1 9.99398 24.1702 1.17263 -1.34963 2.3224 -3.76156 0.191054 -4.1208 -0.601196 0.358213 0.0857316
90 1 12.8226 24.1983 1.04502 -3.32555 -1.34099 0.789537 0.174099 -4.06787 -1.01774 0.0589546 0.975106
189 1 11.404 22.6532 2.51774 1.1462 2.87937 3.03823 0.280828 -4.00675 -0.23065 1.0205 0.059222
92 1 1.49183 27.0716 1.12034 -1.55268 0.823337 -0.21304 0.067937 -4.07569 -0.273402 -0.143746 0.448635
93 1 2.95679 25.6072 -0.302526 -2.98218 -1.24306 2.03838 0.159924 -4.10763 -0.0192998 0.235461 -0.361902
94 1 4.31233 27.0701 1.273 -2.42482 -0.468398 -1.32983 0.626751 -4.01385 -0.37516 0.272026 -0.684362
193 1 2.87926 25.4829 2.50845 -1.0862 0.475835 1.41936 0.399078 -4.03006 0.0215426 0.724994 0.0224671
5 1 5.72241 28.2956 -0.243628 2.69086 -0.906142 0.0342517 0.555253 -4.06858 -0.193327 0.467232 -0.594159
107 1 8.62684 28.3911 2.61202 1.62718 -2.83475 -3.52836 0.288048 -4.11524 -0.616352 0.982074 -0.734954
96 1 7.19496 27.0059 1.12249 3.8854 -2.09663 -3.2721 0.0364983 -4.11106 -0.360578 0.225797 0.138145
195 1 5.7699 25.6353 2.52296 -1.7019 -1.17403 1.74296 0.121741 -4.07859 -0.130513 -0.0931193 0.451797
197 1 8.65402 25.6862 2.57397 -0.592902 -0.620959 0.00800132 0.312564 -4.10997 -0.427954 -0.413948 0.482688
7 1 8.51249 28.4072 -0.223254 0.305773 -1.36188 3.04787 0.31709 -4.05176 -0.0568254 0.271572 -0.888932
191 1 14.1954 25.5315 2.53187 -0.0885336 -4.4938 -0.48509 0.206063 -4.00043 0.708417 0.40856 -0.298818
98 1 9.85719 27.0277 1.07974 2.60699 4.64685 0.62246 0.384815 -4.14687 1.06836 -0.230156 -0.00139405
100 1 12.8111 27.1397 1.13276 0.688756 2.41483 -3.36628 0.109163 -4.07624 0.0258676 -0.517362 0.0586618
199 1 11.3947 25.7747 2.57549 -1.77748 -0.753815 0.440887 0.576192 -4.03331 0.262017 -0.903869 0.472403
99 1 11.3966 25.6653 -0.261287 -3.11862 -0.640777 0.494149 0.135173 -4.08834 -0.239822 -0.376753 0.148837
102 1 1.43258 1.58866 4.05149 7.38627 -3.29026 1.48818 0.291032 -4.09209 0.144598 0.335453 -0.149797
104 1 4.40471 1.70471 3.96482 -2.62904 -0.431866 -2.50035 0.22277 -4.09784 -0.588923 0.0101604 -0.273154
202 1 1.64591 1.56967 6.81323 2.02744 3.5456 -1.59179 0.585016 -4.06343 -1.03414 1.01635 0.346027
203 1 2.94499 0.259696 5.4338 -1.3304 -3.48688 0.0854903 0.126165 -4.10903 0.348373 -0.339216 -0.546157
204 1 4.18458 1.68524 6.89121 -0.935437 1.48785 2.63114 4.28063 -4.07498 1.37143 -0.911337 -0.114366
213 1 2.88677 3.08084 5.4009 -2.28947 -0.845795 -1.07431 0.337182 -4.12177 0.10753 -0.0543004 0.00546448
106 1 7.15632 1.63052 3.95035 0.736671 -1.16949 0.0239501 0.226125 -4.14389 0.638496 0.559093 0.995034
205 1 5.64874 0.299036 5.30468 2.33469 0.995414 0.291621 0.53703 -4.00992 0.730106 -0.844157 1.49147
206 1 7.2548 1.68985 6.85422 -1.46106 -1.55409 1.7364 0.344387 -4.04042 -0.438909 -0.772295 -0.223355
207 1 8.58474 0.236208 5.50661 1.31666 3.04051 1.49325 0.140622 -4.06205 0.575848 0.293546 -0.8263
215 1 5.78167 2.95842 5.55691 -1.49422 -2.50707 3.51511 0.49875 -4.05835 -0.118071 0.232126 -0.648566
217 1 8.60442 3.0921 5.45604 -1.80041 2.92479 -5.24384 0.120285 -4.09234 -0.372209 -0.323803 0.216778
201 1 14.2143 0.277593 5.5101 -0.76465 1.66164 -3.30675 0.307401 -4.11118 -0.0282665 0.0249896 -0.0629646
211 1 14.1953 3.09372 5.56181 0.131749 -3.47244 0.658656 0.24864 -4.09234 0.15387 -0.599988 -0.63301
108 1 9.98023 1.81548 4.07221 1.78008 -0.0382443 0.481447 0.562611 -4.01399 0.221921 -1.42993 -0.28891
110 1 12.7567 1.63776 3.98585 0.143622 0.261967 0.471904 0.155653 -4.00524 0.23498 0.301225 0.247727
208 1 9.93587 1.5992 6.93952 -2.11946 3.54369 -4.60115 0.124127 -4.18448 0.729284 0.401994 0.0591591
210 1 12.7168 1.62492 6.96665 1.93469 -2.84729 3.21644 0.350164 -4.05123 0.00119489 -0.318622 -0.265266
219 1 11.4042 3.08595 5.47981 2.96876 -3.6 -0.306264 0.0648826 -4.04699 0.173514 -0.201787 -0.149659
112 1 1.47335 4.44722 4.13162 -2.08488 5.53109 1.88305 0.224163 -4.03269 0.176298 0.506565 -0.39445
114 1 4.45714 4.53943 4.1435 0.408107 -1.46821 1.68028 0.424044 -4.09873 -0.139717 -0.558295 0.0426397
122 1 1.5387 7.19477 4.10018 -2.178 2.10286 -1.52883 0.263361 -4.00274 -0.168999 0.468647 -0.401326
124 1 4.30599 7.3213 4.07848 -1.70609 -0.894295 0.386355 0.155819 -3.99321 0.102063 0.168069 -0.134627
212 1 1.5107 4.56417 6.94542 1.71349 1.1107 -0.37813 0.377641 -4.10806 0.394988 -0.652617 -0.0743781
214 1 4.35594 4.34938 6.96276 -3.60792 0.888428 1.10906 4.67717 -4.10385 -0.0435678 0.379092 -0.541082
222 1 1.54559 7.23945 6.9249 2.60978 -1.28947 -2.65909 0.154851 -4.11853 -0.118047 0.0409306 0.0508929
223 1 3.00176 5.86832 5.51757 -2.9209 -3.41332 -1.19244 0.119359 -4.11829 -0.12257 -0.138789 0.119922
224 1 4.45542 7.31972 6.95924 2.28078 -2.16034 3.83898 0.289266 -4.0579 -1.07551 0.260989 -0.72646
116 1 7.08446 4.43511 4.07889 -0.717838 -0.661302 1.69127 0.354106 -4.11218 0.450391 0.266622 -0.337553
126 1 7.33953 7.39572 4.05877 1.37971 -3.46356 0.697126 0.482611 -4.00619 -0.43386 -0.352863 -0.311373
216 1 7.15048 4.45322 6.81458 0.663868 1.20315 1.59813 0.317757 -4.14492 0.235692 0.326062 0.287272
225 1 5.7941 6.05956 5.43621 0.299468 -1.75276 -1.18853 0.612124 -4.05726 -0.220972 -0.60345 0.126309
226 1 7.22143 7.27669 6.92756 -1.92098 2.73055 -2.00716 0.109319 -4.1485 -0.0119084 0.069815 0.240748
227 1 8.61587 5.8789 5.44249 -0.532809 -0.371899 0.126652 0.126804 -4.05374 -0.200199 -0.365741 0.0905435
221 1 14.1524 5.86373 5.53101 0.796103 -1.93786 -0.0692733 0.122823 -4.08096 -0.124208 0.333633 -0.600984
118 1 10.0291 4.4796 4.04351 -2.00022 0.251406 -1.34662 0.0978593 -4.13825 -0.0869009 0.153828 -0.689638
120 1 12.7727 4.51546 3.98249 -2.93314 -0.0391201 0.674702 0.105953 -4.12459 0.072229 -0.469196 0.380109
128 1 10.0124 7.32217 3.99701 -2.7644 2.28321 3.1472 0.120635 -4.11898 -0.470034 0.233842 0.0521586
130 1 12.7448 7.26336 4.00266 -1.8326 -3.86476 -3.53257 0.154494 -4.12282 0.692535 -0.228989 0.407157
218 1 9.92391 4.44006 6.922 2.54663 2.02038 1.45237 0.0871917 -4.13147 0.380308 0.126676 0.157582
220 1 12.7806 4.44772 6.91416 -0.879614 -1.25736 1.20844 0.061754 -4.01757 -0.305444 -0.0456762 0.158319
228 1 9.92162 7.27115 7.00299 0.0778168 -0.255412 1.79302 0.250343 -4.10605 -0.0113781 -0.185102 0.0494791
229 1 11.2652 5.91426 5.51172 0.58398 1.74186 -1.1864 0.296353 -4.10358 0.758843 -0.386393 -0.146247
230 1 12.8446 7.35538 6.8427 2.31232 0.678649 1.21522 0.270257 -4.07357 -0.510967 -1.03251 0.309047
132 1 1.49806 10.2454 3.9647 0.926583 1.77752 2.20689 0.197437 -4.04368 0.326536 -0.841222 0.523128
134 1 4.33421 10.2257 4.09562 -1.95039 -2.01599 -1.69927 0.270269 -4.04857 0.333637 -0.736373 -0.209785
232 1 1.56015 10.1641 6.94062 2.12226 0.0705619 -0.681687 0.203553 -4.11612 -0.552455 0.121484 -0.0421468
233 1 2.86938 8.7146 5.53349 -0.683116 0.194601 5.31636 0.142793 -4.07009 0.4967 0.296214 -0.693281
234 1 4.30212 10.2221 6.92003 -0.621179 0.157015 -0.123602 5.14275 -4.10515 0.843409 -0.176842 0.182402
241 1 0.149986 11.5192 5.43757 -2.41095 0.904273 -0.0212207 0.0900427 -4.0823 0.170477 0.0552666 0.301781
243 1 2.87755 11.525 5.38716 -0.234391 0.744033 0.670144 0.231989 -4.05191 -0.123105 -0.221072 0.408791
136 1 7.34978 10.1327 4.074 0.629619 0.98562 1.20116 0.35896 -4.10114 -0.680499 0.478805 -0.271132
235 1 5.87066 8.81598 5.41005 0.465343 -1.43871 1.4062 0.365882 -4.09298 -0.757147 -0.951882 0.055728
236 1 7.13391 10.1574 6.9464 2.36863 -0.429749 -0.449581 0.255235 -4.1335 0.17581 0.0693879 0.344078
237 1 8.63235 8.75913 5.6232 2.56455 0.935182 0.542097 0.341716 -4.13725 -0.168165 -0.142454 -0.88116
245 1 5.87987 11.5851 5.47184 0.240801 -0.541356 -0.243051 0.422294 -4.0795 -0.490311 -0.252008 -0.181401
247 1 8.6244 11.498 5.57629 0.432483 -3.51449 2.45946 0.188138 -4.14471 0.0718137 0.582952 -0.409923
231 1 14.2058 8.74973 5.43658 -0.187028 1.52542 1.17023 0.0849892 -4.14161 0.841244 -0.42944 -0.0593149
138 1 9.92992 10.142 4.0099 -1.64946 -2.47072 4.24093 0.259776 -4.15745 1.14771 -0.531542 0.281289
140 1 12.8378 10.2224 4.01771 -3.06779 0.590986 0.953237 0.186843 -4.14699 -0.507976 -0.507259 0.0693985
238 1 10.0462 10.0877 6.94574 4.00462 1.03455 -0.403308 0.137798 -4.05019 0.0878912 0.00198742 0.197154
239 1 11.364 8.67474 5.44364 1.07823 -1.10089 5.00007 0.0954785 -4.11657 0.442931 0.0104155 -0.246369
240 1 12.788 10.0949 6.77568 0.473313 1.12475 -2.36237 0.353875 -4.01671 0.254642 0.800074 1.01904
249 1 11.3994 11.5636 5.56596 0.00818624 4.09037 -1.73351 0.234543 -4.09823 -0.603475 -0.0726092 -0.468987
142 1 1.52181 13.0509 4.11618 -1.28477 -4.17543 2.9049 0.336079 -4.14543 0.108262 -0.177274 -0.311675
144 1 4.29805 12.8216 3.95477 1.81958 -2.20134 0.0142737 4.66771 -4.08343 0.427813 0.585488 0.496318
152 1 1.51339 15.8576 4.09296 -0.669006 2.84052 -0.820189 5.06318 -4.17891 0.436397 -0.921947 -0.820315
154 1 4.25725 15.7179 4.01016 2.46855 -1.35996 -1.82568 0.302978 -4.07917 0.949218 0.678917 -0.11662
242 1 1.53992 12.9165 6.89034 0.280113 3.4737 -1.1283 0.11432 -4.16661 0.396289 0.0824459 0.0954156
244 1 4.24982 12.7782 6.9162 2.14938 -0.0921022 -0.749942 5.0458 -4.10536 0.277837 0.42439 -0.0848669
251 1 0.128475 14.4623 5.53327 2.68999 -0.1114 0.508103 0.218484 -4.08203 -0.331593 -0.300939 -0.122856
252 1 1.63436 15.7834 6.80531 -3.12021 0.366244 0.726554 0.442325 -4.03032 -0.06281 -0.0963799 0.508613
253 1 3.02926 14.3678 5.50877 0.643288 -2.70259 -2.00417 0.347367 -4.04147 -0.443312 -0.262017 -0.194846
254 1 4.32401 15.7314 7.00715 -3.29084 -1.84392 -1.68306 0.260242 -4.04152 -0.210173 0.158389 -0.662073
146 1 7.13468 12.9886 4.02411 1.04428 0.1527 -2.62964 0.130923 -3.95311 0.797048 -0.210978 0.29778
156 1 7.1141 15.8395 4.05025 -5.45427 -4.00032 2.42238 0.285072 -4.05877 0.362979 -0.00429198 0.13235
246 1 7.17912 12.9922 6.95953 0.991656 -1.68864 -0.448699 0.133777 -4.04325 0.382846 -0.521664 -0.297025
255 1 5.79332 14.3612 5.42831 0.949383 2.2935 -3.25327 0.17345 -4.13378 -0.789053 -0.357634 0.344695
256 1 7.19239 15.8423 6.82631 -0.861153 0.781607 -0.146585 0.361174 -4.05948 0.681424 -0.949021 0.247354
257 1 8.60857 14.4287 5.52475 -2.00567 3.54744 2.76289 0.0715485 -4.09589 -0.134981 -0.573383 -0.840719
148 1 10.0789 12.8625 4.1186 2.53119 -0.204599 1.59625 0.296578 -4.04699 -0.334374 0.601085 -0.364892
150 1 12.8144 12.9078 4.08572 0.842405 -1.04171 -0.584461 0.153263 -4.14586 0.652703 0.337076 -0.175584
158 1 10.0599 15.8093 4.10207 1.95172 -4.28031 -2.67566 0.24643 -4.06285 0.014633 -0.582118 -0.14661
160 1 12.7974 15.8078 4.00554 2.05154 2.79304 -0.0709358 0.181192 -4.09838 0.134146 0.0249665 0.590787
248 1 10.001 13.0598 6.96436 1.15591 3.93167 -3.97146 0.324882 -4.04697 0.363967 -0.343404 -0.178523
250 1 12.9049 12.9601 6.87021 1.45982 -1.9964 -1.75047 0.248029 -4.10562 -0.172829 -0.250641 0.317637
258 1 10.0849 15.781 6.92745 3.15439 -2.57917 -3.22034 0.182997 -4.13065 -0.636838 -0.450253 -0.0052442
259 1 11.5154 14.2983 5.47033 2.36546 0.76793 -0.871017 0.265098 -4.10089 -0.566539 0.579538 0.416196
260 1 12.7221 15.7462 6.95434 1.07372 0.97037 -2.70378 0.523859 -4.02048 0.578143 -0.199146 0.0454529
162 1 1.61205 18.4318 4.03648 0.103087 0.473685 0.329909 0.467349 -4.09078 -0.0901479 0.80046 -0.0343443
164 1 4.41893 18.6151 3.92642 -0.211573 3.22505 -5.20284 0.330273 -4.06258 -0.590754 -0.673974 0.508733
262 1 1.64124 18.6991 6.90526 -1.57751 0.894061 -4.43727 0.341714 -4.12322 -0.772747 -0.325211 -0.338163
263 1 3.02324 17.1738 5.45746 -2.37006 -0.133771 0.32695 0.254247 -4.10711 0.14389 0.411927 0.121507
264 1 4.25569 18.5351 7.04463 2.99979 1.41468 -0.253245 0.46461 -4.06304 0.886188 0.211243 -0.42473
271 1 0.239882 19.931 5.36901 -2.9132 -1.24747 -1.34561 0.575904 -4.06703 0.000857695 -0.0849662 0.526701
273 1 3.06119 20.0027 5.47297 0.40391 -0.0741893 3.19324 0.351785 -4.11376 -0.461197 0.211363 -0.595178
166 1 7.16241 18.5363 4.01884 0.698547 0.150344 -2.49931 0.164477 -4.17585 0.174071 -0.0312703 -0.370758
265 1 5.71847 17.1429 5.58798 -1.6126 -0.82668 -3.54668 0.4033 -4.10785 -0.883009 0.337459 -0.724257
266 1 7.25348 18.553 6.82751 1.95445 3.37989 -0.145865 0.527248 -4.0316 -0.479918 -0.0765223 0.135277
267 1 8.63962 17.1234 5.40094 1.62128 1.24999 -1.44411 0.25321 -4.06029 -0.100638 0.0780998 0.937885
275 1 5.66392 19.9514 5.47902 0.0670137 -1.38317 -3.87798 0.294469 -4.102 0.570016 -0.21283 0.637475
277 1 8.52362 20.0544 5.46872 0.898333 -0.0775842 -0.479706 0.248746 -4.13233 0.705993 -0.208 0.366708
261 1 14.1769 17.1487 5.54659 3.22524 -0.724689 1.23685 0.348523 -4.12932 0.351497 0.117626 0.155269
168 1 9.9888 18.5753 4.06 -3.61858 0.233632 -1.83299 0.192033 -4.07821 -0.362884 -0.289386 -0.27918
170 1 12.8038 18.6463 4.16184 0.900172 4.64776 -2.52583 0.312598 -4.09686 -0.0582515 -0.668231 -0.346037
268 1 9.90461 18.5053 7.02014 4.57801 -0.241298 0.328247 0.28855 -4.05407 0.229312 0.641515 -0.33353
269 1 11.4148 17.1891 5.64834 1.22914 3.37173 -1.05524 0.366491 -4.0613 0.611934 0.752989 -1.10859
270 1 12.909 18.7314 6.91031 -1.75346 -1.91228 -0.862528 0.523092 -4.07726 -0.746629 -0.694391 0.751561
279 1 11.3598 20.0486 5.44771 2.0114 -4.45816 0.994583 0.251802 -4.05626 -0.593372 -0.0466439 0.193525
172 1 1.47279 21.4257 4.06298 2.33301 -0.225112 2.95214 0.265295 -4.09967 0.616293 0.118598 -0.202806
174 1 4.32705 21.4567 3.91581 -1.27528 -0.710527 -1.51037 0.259605 -4.09929 0.143729 -0.0125116 0.274657
182 1 1.5749 24.1646 4.01727 -0.784188 -3.79054 -2.16947 0.0642361 -4.15219 -0.74027 0.497885 0.00501911
184 1 4.3073 24.238 3.97629 -0.587332 0.565944 -1.32797 0.142092 -4.08613 0.202267 -0.638392 -0.0126495
272 1 1.50093 21.4332 6.83311 -1.3891 0.701157 2.48604 0.352562 -4.13131 0.678484 -0.578149 0.643588
274 1 4.4257 21.4489 6.98833 2.59471 -0.91757 -0.537123 0.25316 -4.0352 0.196026 0.0171051 -0.568547
281 1 0.183488 22.7914 5.53036 -2.74019 0.616667 0.622568 0.145462 -4.01028 -0.739594 0.234178 -0.751071
282 1 1.52472 24.1909 6.99594 -1.23117 0.365724 -0.651941 0.155498 -4.10964 0.974149 0.00353001 -0.790628
283 1 2.92311 22.8102 5.54742 1.18139 2.06881 4.32688 0.16404 -4.05238 0.746764 0.325917 -0.199888
284 1 4.42474 24.2671 6.96481 -2.88227 1.45219 3.65201 0.157306 -4.04277 0.120483 -0.28932 -0.0830249
176 1 7.06694 21.3141 4.08285 -3.95137 -1.5893 -1.01736 0.385435 -4.06525 0.362353 -0.061644 -0.636213
186 1 7.17879 24.1447 3.92866 2.78581 2.06017 1.88695 0.18432 -4.00761 -0.108848 0.617601 0.35662
276 1 7.10716 21.4372 6.97783 2.60993 -1.18025 -2.38511 0.234111 -4.06714 0.288658 0.014359 -0.188085
285 1 5.85589 22.7635 5.34951 1.31531 1.02106 -0.50399 0.518165 -4.03264 -1.28533 1.29085 1.15887
286 1 7.16944 24.2408 6.95902 1.08031 -1.08147 0.839848 0.26407 -4.05894 -0.437651 -0.51894 -0.852507
287 1 8.6565 22.7436 5.39352 2.42 3.87829 -0.705154 0.323643 -4.22409 -0.589201 0.46719 0.534886
178 1 9.99102 21.4199 3.98082 -1.13098 -1.50552 3.15931 0.231893 -4.07763 0.518116 -0.172033 0.0355454
180 1 12.8404 21.4228 4.10762 -0.471497 0.0061306 0.269058 0.279525 -4.20477 0.0664285 0.0495946 -0.244386
188 1 10.0407 24.0693 3.87949 -1.30348 -2.27273 0.479064 0.787448 -3.98422 -0.227781 1.21069 -0.0449202
190 1 12.925 24.1389 3.99065 -1.55903 -2.12372 1.13416 0.397625 -4.02576 -0.985525 0.0907398 0.234039
278 1 9.94955 21.4304 7.02669 1.38589 -0.978514 1.96516 0.304786 -4.00262 0.0951717 -0.56667 -0.71264
280 1 12.8739 21.3633 6.84656 1.61778 1.13426 1.57654 0.281703 -4.16581 -0.0336365 0.0594163 0.337375
288 1 10.0194 24.1956 7.00808 2.68269 2.22443 1.78439 0.365118 -4.02239 -0.449958 -0.158233 -0.208569
289 1 11.3072 22.8471 5.47385 -3.96248 4.07387 -0.259648 0.48233 -4.12056 0.375398 -0.0750429 0.483902
290 1 12.8777 24.1232 6.90011 1.06046 -1.98762 3.24564 0.234128 -4.12128 -0.563422 0.207041 0.111973
192 1 1.54582 26.9795 4.04865 0.832332 -0.820942 0.130328 0.142912 -4.18375 -0.275773 0.377104 -0.333302
194 1 4.33343 27.1078 3.99388 -1.61671 -3.20912 1.28134 0.247521 -4.08563 -0.213687 -0.491138 -0.319864
291 1 0.123486 25.6243 5.58609 -1.91934 -0.395923 -0.219087 0.357634 -4.01721 0.251455 -0.213354 -0.60592
292 1 1.58125 27.1181 6.8193 0.521729 -0.104332 -0.21211 0.252145 -4.15718 -0.238929 -0.603217 0.00334379
293 1 3.0799 25.6086 5.44714 2.80973 1.17343 -0.298043 0.37767 -4.02274 -1.10848 0.151807 0.717023
294 1 4.2495 27.1204 6.89299 -1.17778 2.9951 1.58236 0.248922 -4.07588 0.477655 -0.269365 -0.440351
196 1 7.3038 27.0489 4.12921 3.37805 -2.98627 4.17109 0.555619 -4.03559 -1.12094 0.116128 -0.963983
295 1 5.73558 25.636 5.42721 2.43808 0.681994 -1.51506 0.150968 -4.12605 0.0438772 -0.187651 0.0832398
296 1 7.17419 27.0665 6.80959 0.309675 6.50899 -1.89168 0.23498 -3.98841 -0.238372 0.884853 -0.270793
297 1 8.56397 25.5256 5.4716 -0.134748 1.31643 -3.31811 0.337617 -4.1366 0.883388 0.175502 -0.371988
209 1 11.3537 28.3011 5.5356 -0.393176 -1.47754 0.78913 0.765782 -4.00014 0.842232 0.886789 -1.04671
198 1 9.95313 27.0869 3.93467 0.689763 -0.698924 -1.31982 0.286857 -3.92079 0.502544 -0.373103 1.10413
200 1 13.0099 27.0067 3.98615 5.30296 -0.270392 0.651806 0.92171 -4.01589 -0.432373 0.502169 0.182723
298 1 9.9521 27.1594 6.96736 1.28797 -2.74568 -4.13594 0.323482 -4.06483 -0.528944 -0.708819 0.242091
299 1 11.357 25.6421 5.51226 0.613569 6.18239 1.53807 0.318238 -4.05026 0.342942 0.152289 -0.365878
300 1 12.9347 27.0657 6.95996 -0.577292 -1.28953 -3.83829 0.292793 -4.09378 -0.510511 0.165905 0.149003
301 1 0.190771 0.330155 8.24231 0.5675 -0.168496 -2.46061 4.66393 -4.13407 0.168009 -0.258197 0.48122
302 1 1.52998 1.64637 9.93768 -1.42736 -3.15682 0.972455 0.271006 -4.08915 0.401631 -0.311896 -0.375705
303 1 2.87995 0.257353 8.38939 0.341516 -0.0404191 -2.60214 0.178943 -4.11548 0.0606883 -0.305033 0.191964
304 1 4.29008 1.6221 9.786 -4.04083 -0.468429 4.02966 0.148052 -4.06206 0.142547 0.675297 0.494244
311 1 0.149724 2.85167 8.38146 -1.74976 0.28104 0.763369 4.94348 -4.05107 0.0240611 1.80518 -0.415364
313 1 2.89377 2.99568 8.27313 0.148637 -0.416692 -0.495992 0.328087 -4.01819 -0.378112 0.910224 1.22578
403 1 2.9679 0.297361 11.3063 0.394335 0.406084 2.23505 0.171966 -4.09832 0.129859 -0.608044 -0.398801
411 1 0.156785 3.04543 11.263 0.660313 -0.658618 -1.38298 0.133288 -4.12499 -0.384128 0.25038 -0.101448
413 1 2.87494 3.0559 11.3683 -3.05234 -3.9865 -0.430171 0.314335 -4.14031 0.558853 0.114255 -0.929362
305 1 5.63949 0.272746 8.38527 -2.6762 0.601797 -1.53878 0.269339 -4.02899 1.26349 0.131722 -0.551749
306 1 7.16827 1.7968 9.81407 -0.497955 1.38302 -0.554626 0.422486 -3.95496 -0.697279 -1.10701 0.334602
307 1 8.54451 0.339894 8.42768 2.06573 -1.47317 -0.377265 0.307897 -4.11123 -0.553452 -1.04969 0.0613692
315 1 5.88369 2.98404 8.30534 0.746495 3.22544 0.384377 0.618465 -4.05104 -1.24606 0.150457 0.352879
317 1 8.5575 3.091 8.30656 0.877774 1.33708 0.284955 0.071576 -4.20982 -0.0616158 -0.175494 0.380445