ITEM: TIMESTEP
69250
ITEM: NUMBER OF ATOMS
2000
ITEM: BOX BOUNDS pp pp pp
1.0838953229856951e-01 1.4221610467701321e+01
2.1677906459713903e-01 2.8443220935402643e+01
-1.5211229703590032e+00 5.8841122970358562e+01
ITEM: ATOMS id type x y z vx vy vz c_csym c_peratom fx fy fz
2 1 1.62332 1.66863 -0.0043555 -0.282889 -3.25185 -0.636516 0.278091 -4.05889 -0.646885 -0.228552 -0.668536
4 1 4.35789 1.61575 -0.0776312 0.990702 -5.33602 3.45801 0.229934 -4.08649 0.332563 0.201762 0.693445
11 1 0.115605 3.14255 -1.47237 0.617832 -0.194419 3.50607 0.217878 -4.01002 -0.179965 -0.2355 0.0679044
101 1 0.126621 0.284403 1.46946 -1.57173 1.46596 2.1275 0.152166 -4.07596 -0.213407 -0.162502 -0.0712245
103 1 2.85007 0.270771 1.52998 0.287695 0.367304 -1.8153 0.241059 -3.96013 0.376529 -0.0673457 0.186133
111 1 0.168447 3.08626 1.49632 -2.2925 0.592843 0.179022 0.131926 -4.08473 -0.0741881 0.0289712 0.043645
113 1 2.87763 3.13123 1.55267 -1.71434 2.42111 -1.1208 0.332071 -4.03208 -0.125741 0.0170229 0.178424
13 1 2.94284 3.10367 -1.50181 -0.0706192 -1.95523 0.774801 0.0731172 -3.98002 -0.468728 0.0325789 -0.261105
6 1 7.17995 1.58532 -0.0112171 -1.53139 -1.81767 -2.43971 0.228115 -4.05141 0.195987 0.703981 0.139408
17 1 8.63608 3.25517 -1.45085 -1.24355 -0.0988133 -0.860341 5.04271 -4.03046 -0.165229 -0.646005 -0.399041
105 1 5.90739 0.22905 1.4978 0.812795 -1.48127 -4.16198 0.294588 -4.04418 -0.596218 -0.318418 0.196413
115 1 5.79048 3.13764 1.48283 -0.932742 0.818202 0.0439582 0.181622 -4.01404 -0.305301 -0.201911 0.0442042
117 1 8.60233 3.08029 1.56442 0.475293 0.415756 -1.302 0.164689 -4.01751 -0.272924 -0.00233994 -0.761307
15 1 5.86915 3.09703 -1.46313 -1.1078 -3.23994 -0.243916 0.293564 -3.96422 -0.419079 0.387354 -0.423086
8 1 9.98472 1.71462 -0.128276 1.02028 2.64764 -1.65962 0.396874 -4.01742 -0.504117 0.0341149 1.16145
9 1 11.3244 0.287262 -1.41923 -0.628437 1.37052 0.162777 0.398847 -4.01434 0.92832 -0.110535 -0.341077
10 1 12.8557 1.68831 -0.0770932 -0.261261 2.58464 0.684826 0.135992 -3.9941 -0.0158417 0.107224 -0.030597
109 1 11.3921 0.306018 1.46744 4.17545 -4.26001 3.01885 0.168824 -4.03265 -0.208836 -0.497172 0.120134
119 1 11.4562 3.11085 1.41254 -0.877516 0.612354 1.13148 0.154176 -4.06909 -0.183566 -0.205294 -0.268208
12 1 1.52356 4.6359 -0.108101 1.18436 1.40208 1.05812 0.57384 -4.01278 0.272321 -0.549123 0.286591
14 1 4.34915 4.42365 0.090002 -0.761965 1.11821 -1.53086 0.273391 -4.06666 0.0732908 -0.0534198 -0.477966
22 1 1.54026 7.32431 -0.0804186 0.529166 1.27637 -0.648244 0.246954 -3.99327 -0.115686 0.0027485 0.617634
23 1 3.01689 5.92797 -1.49318 4.21453 0.286138 -0.65637 0.223538 -3.99551 -0.263432 -0.300921 -0.359211
24 1 4.35552 7.36387 -0.0094408 0.718611 1.41969 0.425215 0.10792 -3.99823 -0.571436 0.0111805 -0.102442
121 1 0.132435 5.82793 1.48928 -2.35864 3.10392 -0.471262 0.18719 -3.9998 0.444374 0.226887 -0.279092
123 1 3.01618 5.86763 1.5856 1.00139 1.8653 -1.24788 0.256711 -4.07444 -0.24148 0.033696 -0.110994
16 1 7.14135 4.5226 0.0685686 0.603539 0.154603 0.133915 0.15593 -4.02491 -0.113768 -0.280763 -0.143343
25 1 5.70759 5.92495 -1.40186 -0.827089 1.1553 2.35682 0.324171 -4.09593 0.123868 -0.677521 -0.826214
26 1 7.1412 7.16975 -0.0595449 -0.0337704 2.62343 0.778117 5.03054 -3.9187 0.399302 1.35483 0.321591
125 1 5.74127 5.95799 1.53309 -0.136011 -2.75282 -0.154075 0.138292 -4.15181 0.0566173 0.097693 -0.114548
127 1 8.57446 5.88387 1.39616 -1.51658 -3.67076 0.00771245 0.37103 -4.04544 0.288269 -0.21138 0.627036
18 1 10.0587 4.47472 -0.00795058 2.01504 1.15568 0.108705 0.213137 -4.02572 -0.23486 0.542612 0.235807
20 1 12.7939 4.54238 -0.0419711 -0.022531 3.00342 -1.17168 0.0608604 -4.08118 0.134999 -0.182511 0.459401
28 1 10.1169 7.35391 0.0822658 1.08986 -1.21663 1.80841 0.406396 -3.99846 -0.268957 -0.236088 0.213129
29 1 11.4127 5.98723 -1.50307 1.3822 1.47477 -0.555896 0.0538217 -4.07616 -0.338551 -0.384417 -0.0548755
30 1 12.8531 7.28188 0.0535389 0.362699 -0.519128 0.486825 0.136076 -4.08797 -0.238528 0.649275 -0.0354768
129 1 11.3642 5.90889 1.54032 -0.995542 1.01394 2.2528 0.109806 -4.0737 0.0226823 0.102703 -0.369132
32 1 1.48279 10.1923 -0.0778697 2.66336 -1.18469 0.933482 0.227259 -4.11107 0.317166 -0.348561 0.492137
34 1 4.32744 10.195 -0.0769405 -3.42019 -1.92301 1.41173 0.19082 -4.03873 -0.173261 -0.687971 0.431353
43 1 2.92107 11.628 -1.4984 2.17426 0.782241 3.50485 0.116798 -4.07703 -0.0141876 -0.565632 -0.0833188
133 1 2.87707 8.77788 1.52309 -1.44944 0.975575 0.710255 0.0909665 -4.00997 0.403083 0.00131734 0.255103
141 1 0.146359 11.6297 1.40723 -2.20193 -7.04944 -1.51669 0.314259 -4.08764 0.196329 0.0892147 0.446469
143 1 2.92416 11.521 1.49917 -0.572232 1.1909 1.77002 0.162777 -4.09502 -0.129112 0.297918 -0.384474
36 1 7.17897 10.1662 0.0384701 0.10168 3.47717 0.174941 0.166086 -3.95667 -0.204049 0.185576 -0.0418963
47 1 8.63625 11.4798 -1.41647 -1.46078 2.66256 0.234251 0.284112 -4.03736 -0.444463 0.0977562 -0.183608
135 1 5.71447 8.72482 1.60039 -0.880733 0.590278 -0.109653 0.28801 -4.02938 0.676591 -0.158802 -0.192606
137 1 8.61908 8.74613 1.4335 -4.19951 1.4167 -2.48788 0.361475 -4.06752 -0.249758 -0.242781 0.0322804
145 1 5.78797 11.4174 1.5018 0.913579 -3.10787 0.676852 0.314471 -4.02147 -0.339803 0.729693 -0.0256473
147 1 8.63173 11.5707 1.60603 -2.52053 -2.66134 -2.016 0.189305 -4.04823 -0.0851388 0.628613 -0.906305
37 1 8.64539 8.6808 -1.38619 -0.410704 1.96136 0.795798 0.365176 -4.09835 -0.159805 0.242578 -0.550814
41 1 14.1834 11.5242 -1.42045 -1.35835 -5.95404 3.83557 0.244187 -4.03711 -0.435971 0.5294 0.0271846
131 1 14.189 8.78043 1.6216 -1.59748 2.05417 3.03081 0.398856 -3.97299 0.824247 -0.232884 -0.295294
38 1 10.1092 10.2499 0.107946 0.647054 3.02786 -2.05404 0.494764 -4.04722 -0.603048 -0.321594 0.636688
39 1 11.3428 8.78317 -1.46792 2.80774 -0.622395 -1.00191 0.223582 -4.05305 0.550539 -0.303659 -0.0912936
40 1 12.8549 10.1114 0.125713 -1.75728 -0.634733 -0.267602 0.243134 -4.05771 -0.0651708 -0.154392 -0.729128
139 1 11.4119 8.69776 1.5874 -0.425376 2.4171 -0.0430739 0.109227 -4.07268 0.0839577 0.312866 -0.0753858
149 1 11.4267 11.5446 1.5883 -0.904464 -0.906018 0.248794 0.175996 -4.04773 -0.0121006 0.00848222 -0.431453
49 1 11.351 11.4979 -1.43883 -3.94296 -1.72452 -3.57845 0.144081 -4.00869 0.12342 0.440269 -0.511479
42 1 1.60077 12.9976 -0.0946721 -0.841826 -0.173751 0.753914 0.42574 -4.04516 -0.778609 0.124325 -0.00931218
44 1 4.30049 12.9516 -0.110142 -1.17519 0.372824 -0.13007 0.109483 -4.11375 0.714741 -0.00918341 0.155173
52 1 1.58776 15.7356 0.139143 -0.585983 1.26946 1.71295 0.680166 -3.9481 -0.579256 -0.120425 -0.841427
54 1 4.38463 15.6552 -0.0128434 0.269637 0.959657 1.9614 0.271238 -4.06122 -0.707917 0.010782 -0.107911
153 1 2.9946 14.2978 1.51254 -3.03426 -0.361765 3.65674 0.165583 -3.98335 -0.257279 0.109804 0.466863
46 1 7.13899 12.8477 -0.0378998 -0.042375 -0.703018 -2.37022 0.224429 -4.00514 -0.122462 0.28341 0.173784
56 1 7.08452 15.7726 -0.0934133 0.19616 0.505449 -1.21975 0.251704 -4.06216 0.0212032 -0.490091 0.203562
155 1 5.76502 14.3443 1.45457 -0.699273 2.50818 -2.71856 0.103385 -4.04999 0.107727 -0.268119 0.469421
157 1 8.53251 14.4644 1.54022 1.77519 1.9958 -4.01974 5.0575 -4.06128 -0.306868 -0.419548 -0.0174546
57 1 8.49816 14.3386 -1.3779 5.27468 2.46447 0.151665 0.498788 -3.95433 0.24 0.138397 -0.893331
51 1 14.0057 14.3518 -1.5207 5.08997 3.62125 -2.07853 4.76617 -3.9612 1.38538 -0.500888 -0.286078
151 1 14.2009 14.4155 1.5211 -4.71089 2.01634 -0.85659 0.12241 -3.97035 0.087044 -0.433247 -0.103474
48 1 9.93985 13.0563 0.013728 2.86016 2.34417 0.701272 0.270714 -4.03825 0.166605 -0.513251 -0.115579
50 1 12.7181 12.9904 0.0109754 0.559624 -1.36974 -0.820506 0.178 -4.04457 0.0852605 -0.326149 0.0588742
58 1 9.99316 15.7186 -0.00464802 -3.3381 -1.51398 5.38263 0.171467 -4.05849 0.247229 0.110612 -0.299966
60 1 12.7967 15.7437 0.00109127 1.53771 1.90327 -4.70531 0.111916 -4.05049 -0.248816 0.192731 0.746648
159 1 11.3491 14.3264 1.57209 -0.265735 -1.65506 -3.98071 0.151937 -4.0448 0.371566 0.354849 0.00798063
62 1 1.43944 18.5161 0.0372581 0.272627 0.831543 -0.200207 0.116066 -4.00337 0.164212 0.307789 -0.535024
64 1 4.38586 18.6552 0.0415 1.24428 1.0664 2.86252 5.15652 -3.99874 -0.480324 -0.563223 -0.0813737
163 1 2.94245 17.1558 1.40586 0.341627 2.40032 0.506019 0.3914 -4.01246 0.615682 0.25759 0.221741
171 1 0.141802 19.9783 1.60994 -0.0590841 -1.37942 4.27312 0.170089 -4.10226 -0.43024 -0.153245 -0.703242
173 1 2.89555 19.9823 1.4902 0.785649 -1.23368 2.3689 0.146113 -4.08297 -0.436496 -0.449888 0.246698
66 1 7.24355 18.6165 0.0407105 2.75597 -4.35103 0.905848 5.41852 -4.12484 -0.737233 0.163077 0.19487
67 1 8.57677 17.1461 -1.49661 -4.30079 -3.56988 1.31798 0.0495537 -4.12133 -0.272844 0.121796 0.0267373
165 1 5.78304 17.093 1.44541 1.97311 1.99329 -0.167527 0.23933 -4.02013 0.0150699 0.485701 0.322886
167 1 8.56005 17.078 1.39147 1.63712 1.01306 -0.622391 4.64682 -4.06656 -0.00319405 -0.338471 0.793746
175 1 5.70632 20.007 1.51643 -3.42076 -2.85137 2.01629 0.13362 -4.02873 0.351296 0.159956 -0.176389
177 1 8.58858 20.043 1.7242 -1.05917 0.80188 -0.731301 0.97533 -3.98727 -0.391257 -0.264422 -0.600693
75 1 5.71713 19.9361 -1.51158 -4.53949 -0.9021 2.29786 0.129015 -4.03938 0.0800863 0.247757 -0.793306
65 1 5.67248 17.193 -1.47305 -1.31158 -3.63153 -0.620776 0.331493 -4.08045 0.387666 0.122778 0.0289376
161 1 14.1852 17.2046 1.61522 -8.06951 -0.86164 0.0732044 0.214011 -4.10322 -0.364054 -0.193147 -0.58915
68 1 9.83757 18.5862 0.0673494 1.01621 0.95189 3.77626 5.22117 -4.08465 0.472723 0.384476 -0.334287
70 1 12.7582 18.5098 0.0264529 -2.75978 -0.241021 0.901339 0.156068 -3.96914 0.493809 0.206295 -0.221037
169 1 11.4357 17.1907 1.50577 -0.050047 0.778513 1.36961 0.109898 -4.03157 -0.29108 0.0589818 0.454359
179 1 11.4548 19.9395 1.5921 0.478562 4.61523 -0.247094 0.247162 -4.06374 -0.472681 0.0945439 -0.531959
69 1 11.3235 17.1806 -1.41425 2.51938 -0.439877 2.89062 0.213719 -4.0398 -0.00513461 -0.29697 -0.267295
71 1 14.189 20.001 -1.40751 -3.02828 1.71166 0.793185 0.300292 -3.92356 -0.08115 -0.398009 -0.491452
61 1 14.2026 17.0274 -1.44825 -2.79754 0.110739 5.17862 0.292866 -3.99128 0.285238 0.285132 -0.00870433
72 1 1.54936 21.3951 -0.0570919 2.3338 -3.4761 -2.56089 0.174268 -4.10662 -0.493623 -0.0740043 -0.00534313
74 1 4.24289 21.3195 0.0737977 -0.775897 2.76848 -0.309503 0.362459 -4.15457 0.716918 0.142531 -0.522018
82 1 1.5098 24.075 -0.130265 -0.197856 1.54937 -4.05427 0.289783 -4.08642 0.0665968 0.381449 -0.0495851
84 1 4.24694 24.1216 0.0175756 1.75243 2.83472 -4.12876 0.391898 -3.99387 0.371055 0.602137 -0.37761
181 1 0.128659 22.763 1.45384 -3.03311 -1.67311 -0.629939 0.0467647 -4.06689 -0.00704646 -0.567834 -0.294653
183 1 2.89382 22.7594 1.41107 0.572942 -1.11899 -0.365379 0.157018 -4.09595 0.167086 0.45123 0.395142
76 1 7.14056 21.2635 -0.00884355 -0.691281 0.193514 1.05787 5.21435 -3.95124 0.121598 0.561824 0.177787
86 1 7.25436 24.2668 -0.00619722 -2.43118 3.29649 -1.15762 5.52089 -3.93539 -0.118256 -0.647645 -0.3593
185 1 5.72509 22.8979 1.41617 3.67767 -2.14848 -3.35625 0.467944 -4.0572 0.0653369 -0.868037 0.146501
187 1 8.47118 22.692 1.58874 -0.732136 -0.532565 -1.73565 0.580652 -4.04669 0.444968 -0.128155 -0.280393
78 1 9.92402 21.3232 -0.0647303 -2.14879 -1.2859 1.20999 0.21862 -4.05854 0.0987691 0.309682 0.920485
80 1 12.7264 21.3466 0.0107484 -2.02506 0.894117 1.33119 0.0639076 -4.00573 0.84553 -0.159948 -0.320326
88 1 9.99398 24.1702 0.0348479 -1.34963 2.3224 -3.76156 0.199917 -4.06382 -0.386627 0.0299797 0.275095
90 1 12.8226 24.1983 -0.0980407 -3.32555 -1.34099 0.789537 0.17916 -4.00993 -0.409011 -0.155688 0.695027
189 1 11.404 22.6532 1.43564 1.1462 2.87937 3.03823 0.285989 -3.96648 0.186203 0.341537 -0.200708
92 1 1.49183 27.0716 -0.0195975 -1.55268 0.823337 -0.21304 0.0686916 -4.01997 0.0142054 -0.409041 -0.0237025
93 1 2.95679 25.6072 -1.50136 -2.98218 -1.24306 2.03838 0.167037 -4.04709 -0.249851 0.230934 -0.488829
94 1 4.31233 27.0701 0.139378 -2.42482 -0.468398 -1.32983 0.662358 -3.98333 -0.640436 0.230068 -0.638831
193 1 2.87926 25.4829 1.42596 -1.0862 0.475835 1.41936 0.408917 -3.99043 0.0341386 0.808195 0.185835
5 1 5.72241 28.2956 -1.44003 2.69086 -0.906142 0.0342517 0.567197 -4.0338 -0.194906 0.149193 -0.721121
107 1 8.62684 28.3911 1.53382 1.62718 -2.83475 -3.52836 0.294012 -4.09405 -0.445575 1.21727 -0.24419
96 1 7.19496 27.0059 -0.0173664 3.8854 -2.09663 -3.2721 0.0377381 -4.08325 -0.313596 -0.0345101 0.44034
195 1 5.7699 25.6353 1.44108 -1.7019 -1.17403 1.74296 0.129423 -4.00773 0.222127 -0.184411 0.335471
197 1 8.65402 25.6862 1.4942 -0.592902 -0.620959 0.00800132 0.318552 -4.08294 -0.593346 -0.199219 0.0555265
7 1 8.51249 28.4072 -1.41881 0.305773 -1.36188 3.04787 0.332925 -4.02062 -0.182721 0.175446 -0.480213
191 1 14.1954 25.5315 1.45036 -0.0885336 -4.4938 -0.48509 0.207297 -3.96228 0.609726 0.256355 -0.739561
98 1 9.85719 27.0277 -0.0618834 2.60699 4.64685 0.62246 0.394125 -4.12694 0.789868 -0.0913441 -0.111735
100 1 12.8111 27.1397 -0.00667262 0.688756 2.41483 -3.36628 0.110165 -4.03018 -0.00319141 -0.338638 -0.228289
199 1 11.3947 25.7747 1.49578 -1.77748 -0.753815 0.440887 0.580851 -3.98464 0.153829 -0.323679 -0.216669
99 1 11.3966 25.6653 -1.45842 -3.11862 -0.640777 0.494149 0.138318 -4.05716 -0.281073 -0.280712 -0.210381
102 1 1.43258 1.58866 3.03288 7.38627 -3.29026 1.48818 0.294214 -4.07853 0.322639 0.252616 0.130642
104 1 4.40471 1.70471 2.94262 -2.62904 -0.431866 -2.50035 0.228045 -4.04289 -0.92021 0.0528838 -0.0544264
202 1 1.64591 1.56967 5.90893 2.02744 3.5456 -1.59179 4.52039 -4.05778 -0.719363 0.939149 0.0659604
203 1 2.94499 0.259696 4.4724 -1.3304 -3.48688 0.0854903 0.128003 -4.09026 0.38151 -0.0552163 -0.484547
204 1 4.18458 1.68524 5.99014 -0.935437 1.48785 2.63114 4.43391 -4.04315 1.04262 -0.280413 -0.130433
213 1 2.88677 3.08084 4.43814 -2.28947 -0.845795 -1.07431 0.348147 -4.08132 0.182734 -0.110639 0.0253597
106 1 7.15632 1.63052 2.92755 0.736671 -1.16949 0.0239501 0.23628 -4.11354 0.585876 0.363692 0.954217
205 1 5.64874 0.299036 4.33794 2.33469 0.995414 0.291621 0.563055 -3.97069 0.491145 -0.643277 1.3382
206 1 7.2548 1.68985 5.95162 -1.46106 -1.55409 1.7364 0.354026 -4.00862 -0.249532 -0.910055 -0.117059
207 1 8.58474 0.236208 4.54823 1.31666 3.04051 1.49325 0.147365 -4.02023 0.412739 -0.0423961 -1.10469
215 1 5.78167 2.95842 4.60061 -1.49422 -2.50707 3.51511 0.514487 -4.02667 -0.0967282 0.57037 -0.19206
217 1 8.60442 3.0921 4.49556 -1.80041 2.92479 -5.24384 0.121445 -4.06688 -0.563555 -0.230585 0.125298
201 1 14.2143 0.277593 4.55187 -0.76465 1.66164 -3.30675 0.315437 -4.07035 0.00518003 0.22321 0.14609
211 1 14.1953 3.09372 4.60571 0.131749 -3.47244 0.658656 0.263013 -4.02855 0.369431 -0.717728 -0.353274
108 1 9.98023 1.81548 3.05445 1.78008 -0.0382443 0.481447 5.47105 -3.97113 0.131204 -0.963535 0.303378
110 1 12.7567 1.63776 2.96452 0.143622 0.261967 0.471904 0.159311 -3.95474 -0.0526741 -0.111481 0.316462
208 1 9.93587 1.5992 6.04045 -2.11946 3.54369 -4.60115 0.124333 -4.14556 0.663016 0.323567 -0.348699
210 1 12.7168 1.62492 6.06871 1.93469 -2.84729 3.21644 0.354302 -4.01437 -0.0896407 0.226965 -0.409899
219 1 11.4042 3.08595 4.52031 2.96876 -3.6 -0.306264 0.065505 -4.00403 -0.228856 0.12098 -0.204845
112 1 1.47335 4.44722 3.11632 -2.08488 5.53109 1.88305 0.234867 -4.00248 -0.0553329 0.564158 -0.385939
114 1 4.45714 4.53943 3.1287 0.408107 -1.46821 1.68028 5.04692 -4.07556 0.00831647 -0.267762 -0.0919688
122 1 1.5387 7.19477 3.08358 -2.178 2.10286 -1.52883 0.265448 -3.95638 -0.308765 0.118605 -0.018699
124 1 4.30599 7.3213 3.06098 -1.70609 -0.894295 0.386355 0.157755 -3.97746 -0.264412 0.0771826 -0.0777562
212 1 1.5107 4.56417 6.0466 1.71349 1.1107 -0.37813 0.379808 -4.07233 0.206263 -0.707342 0.145435
214 1 4.35594 4.34938 6.06465 -3.60792 0.888428 1.10906 4.81173 -4.05008 0.107569 0.880186 -0.584928
222 1 1.54559 7.23945 6.02522 2.60978 -1.28947 -2.65909 0.156607 -4.08415 -0.183398 0.127563 0.26389
223 1 3.00176 5.86832 4.55964 -2.9209 -3.41332 -1.19244 0.11979 -4.07701 -0.0333814 -0.32923 0.402635
224 1 4.45542 7.31972 6.06099 2.28078 -2.16034 3.83898 0.295956 -4.02312 -0.631105 0.396165 -0.686632
116 1 7.08446 4.43511 3.06141 -0.717838 -0.661302 1.69127 5.14547 -4.07007 0.820827 0.266236 -0.348073
126 1 7.33953 7.39572 3.04046 1.37971 -3.46356 0.697126 0.490465 -3.96045 -0.494305 -0.487107 -0.536001
216 1 7.15048 4.45322 5.91034 0.663868 1.20315 1.59813 0.333165 -4.10838 -0.193579 0.246891 0.305352
225 1 5.7941 6.05956 4.47491 0.299468 -1.75276 -1.18853 0.619694 -4.02108 -0.143878 -0.776692 0.376575
226 1 7.22143 7.27669 6.02799 -1.92098 2.73055 -2.00716 0.110607 -4.10697 -0.142512 0.0421117 0.151146
227 1 8.61587 5.8789 4.48146 -0.532809 -0.371899 0.126652 0.131936 -4.0251 -0.126341 -0.0624226 -0.181928
221 1 14.1524 5.86373 4.57364 0.796103 -1.93786 -0.0692733 0.126782 -4.05358 0.283766 0.179445 -0.613026
118 1 10.0291 4.4796 3.02457 -2.00022 0.251406 -1.34662 0.101489 -4.10344 -0.13862 -0.082591 -0.465431
120 1 12.7727 4.51546 2.96102 -2.93314 -0.0391201 0.674702 0.112053 -4.07477 0.180081 0.0303087 0.674331
128 1 10.0124 7.32217 2.97615 -2.7644 2.28321 3.1472 0.127382 -4.0858 -0.481825 0.0963508 0.361829
130 1 12.7448 7.26336 2.98202 -1.8326 -3.86476 -3.53257 0.161202 -4.08677 0.641777 -0.106625 0.458386
218 1 9.92391 4.44006 6.0222 2.54663 2.02038 1.45237 0.088169 -4.09325 0.108949 0.161188 0.0305793
220 1 12.7806 4.44772 6.01404 -0.879614 -1.25736 1.20844 0.0632722 -3.96922 0.13556 -0.190122 0.345143
228 1 9.92162 7.27115 6.10655 0.0778168 -0.255412 1.79302 0.257445 -4.06946 0.175874 -0.131291 0.036588
229 1 11.2652 5.91426 4.55355 0.58398 1.74186 -1.1864 0.299955 -4.07235 1.2374 0.00767789 0.0898216
230 1 12.8446 7.35538 5.93962 2.31232 0.678649 1.21522 0.274765 -4.03725 -0.434041 -0.481057 0.391542
132 1 1.49806 10.2454 2.9425 0.926583 1.77752 2.20689 0.201842 -4.01909 -0.260726 -0.258969 0.553619
134 1 4.33421 10.2257 3.07883 -1.95039 -2.01599 -1.69927 0.276784 -4.00413 0.0608024 -0.700227 0.118335
232 1 1.56015 10.1641 6.04159 2.12226 0.0705619 -0.681687 0.210111 -4.08507 -0.380481 -0.0227054 -0.577574
233 1 2.86938 8.7146 4.57622 -0.683116 0.194601 5.31636 0.145083 -3.99795 0.359239 0.179964 -0.642516
234 1 4.30212 10.2221 6.02015 -0.621179 0.157015 -0.123602 5.30497 -4.05227 0.405336 -0.51685 0.334552
241 1 0.149986 11.5192 4.47633 -2.41095 0.904273 -0.0212207 0.092227 -4.05775 -0.229603 -0.0472768 0.232678
243 1 2.87755 11.525 4.42383 -0.234391 0.744033 0.670144 0.243768 -4.02874 0.00829466 -0.136535 0.271311
136 1 7.34978 10.1327 3.05631 0.629619 0.98562 1.20116 4.89477 -4.0819 -0.466401 0.474143 -0.215031
235 1 5.87066 8.81598 4.44767 0.465343 -1.43871 1.4062 0.378877 -4.05431 -0.495273 -0.843281 0.0781764
236 1 7.13391 10.1574 6.04762 2.36863 -0.429749 -0.449581 0.259965 -4.10653 -0.328454 0.373415 0.0921324
237 1 8.63235 8.75913 4.66965 2.56455 0.935182 0.542097 0.364908 -4.11725 -0.253141 -0.0813775 -0.69953
245 1 5.87987 11.5851 4.51202 0.240801 -0.541356 -0.243051 0.423679 -4.04251 -0.458417 -0.180098 -0.18804
247 1 8.6244 11.498 4.62079 0.432483 -3.51449 2.45946 0.195544 -4.1124 0.136103 0.391267 -0.288967
231 1 14.2058 8.74973 4.4753 -0.187028 1.52542 1.17023 0.0861782 -4.09613 0.713333 -0.169329 0.0505562
138 1 9.92992 10.142 2.98956 -1.64946 -2.47072 4.24093 5.1368 -4.1299 0.9505 -0.328445 0.153065
140 1 12.8378 10.2224 2.9977 -3.06779 0.590986 0.953237 0.192785 -4.10446 -0.575175 -0.258202 0.0169775
238 1 10.0462 10.0877 6.04693 4.00462 1.03455 -0.403308 0.141002 -4.01054 -0.128844 0.424827 0.353895
239 1 11.364 8.67474 4.48265 1.07823 -1.10089 5.00007 0.0985095 -4.08472 0.3699 0.337572 -0.403045
240 1 12.788 10.0949 5.86983 0.473313 1.12475 -2.36237 0.375556 -3.97352 0.505025 0.440023 0.738573
249 1 11.3994 11.5636 4.61004 0.00818624 4.09037 -1.73351 0.247424 -4.06617 -0.607314 0.0149704 -0.147727
142 1 1.52181 13.0509 3.10025 -1.28477 -4.17543 2.9049 0.350474 -4.09589 -0.194543 -0.439039 -0.243585
144 1 4.29805 12.8216 2.93215 1.81958 -2.20134 0.0142737 4.79873 -4.0337 0.396413 0.684178 0.090258
152 1 1.51339 15.8576 3.07606 -0.669006 2.84052 -0.820189 5.22867 -4.13983 0.177924 -0.916624 -0.242813
154 1 4.25725 15.7179 2.98983 2.46855 -1.35996 -1.82568 0.306096 -4.03579 0.895 0.282567 -0.278643
242 1 1.53992 12.9165 5.98924 0.280113 3.4737 -1.1283 0.119749 -4.11251 0.203746 0.130375 -0.234673
244 1 4.24982 12.7782 6.01616 2.14938 -0.0921022 -0.749942 5.21923 -4.05854 0.192068 0.800931 -0.0650915
251 1 0.128475 14.4623 4.57599 2.68999 -0.1114 0.508103 0.224452 -4.03633 -0.441067 -0.265211 0.168717
252 1 1.63436 15.7834 5.90068 -3.12021 0.366244 0.726554 0.468517 -3.99454 -0.288634 -0.182868 0.213182
253 1 3.02926 14.3678 4.55048 0.643288 -2.70259 -2.00417 0.355078 -4.01206 -0.386834 0.060563 -0.0681922
254 1 4.32401 15.7314 6.11088 -3.29084 -1.84392 -1.68306 0.278353 -4.01544 -0.116753 0.12317 -0.224522
146 1 7.13468 12.9886 3.00436 1.04428 0.1527 -2.62964 0.132018 -3.91235 0.621537 -0.316213 0.385867
156 1 7.1141 15.8395 3.03159 -5.45427 -4.00032 2.42238 0.291752 -4.03621 0.362458 -0.101083 0.187884
246 1 7.17912 12.9922 6.06129 0.991656 -1.68864 -0.448699 0.137785 -4.00553 0.325402 0.078545 0.0619203
255 1 5.79332 14.3612 4.46668 0.949383 2.2935 -3.25327 0.178609 -4.06636 -0.379303 0.272985 0.45965
256 1 7.19239 15.8423 5.92256 -0.861153 0.781607 -0.146585 0.377316 -4.05189 0.106647 -0.819935 0.0597593
257 1 8.60857 14.4287 4.56712 -2.00567 3.54744 2.76289 0.073399 -4.04214 -0.322695 -0.62135 -0.511451
148 1 10.0789 12.8625 3.10276 2.53119 -0.204599 1.59625 0.297642 -4.01012 -0.733875 0.862172 0.165601
150 1 12.8144 12.9078 3.06853 0.842405 -1.04171 -0.584461 0.157685 -4.10918 0.414371 0.0687178 -0.14903
158 1 10.0599 15.8093 3.08555 1.95172 -4.28031 -2.67566 0.255171 -4.014 0.259386 -0.20569 -0.224278
160 1 12.7974 15.8078 2.98502 2.05154 2.79304 -0.0709358 0.19167 -4.05106 -0.224582 -0.00377399 0.626914
248 1 10.001 13.0598 6.06632 1.15591 3.93167 -3.97146 0.327556 -4.0223 0.600102 -0.0716779 -0.216742
250 1 12.9049 12.9601 5.96828 1.45982 -1.9964 -1.75047 0.26135 -4.07278 -0.35316 -0.520484 -0.0657845
258 1 10.0849 15.781 6.02788 3.15439 -2.57917 -3.22034 5.34739 -4.10223 -0.254609 -0.164209 -0.142583
259 1 11.5154 14.2983 4.51045 2.36546 0.76793 -0.871017 0.267177 -4.06744 -0.300159 0.711152 0.148907
260 1 12.7221 15.7462 6.05588 1.07372 0.97037 -2.70378 0.52998 -3.99255 0.893715 0.0214354 0.337865
162 1 1.61205 18.4318 3.01725 0.103087 0.473685 0.329909 4.94483 -4.05013 -0.0189993 0.684728 0.250313
164 1 4.41893 18.6151 2.90263 -0.211573 3.22505 -5.20284 0.344482 -4.03744 -0.652109 -0.494643 0.284264
262 1 1.64124 18.6991 6.00477 -1.57751 0.894061 -4.43727 4.95747 -4.08019 -0.741394 -0.656844 0.243053
263 1 3.02324 17.1738 4.49704 -2.37006 -0.133771 0.32695 0.262673 -4.07654 -0.145108 0.117545 0.305475
264 1 4.25569 18.5351 6.14991 2.99979 1.41468 -0.253245 0.484649 -4.04389 0.640683 0.457124 -0.0552497
271 1 0.239882 19.931 4.40493 -2.9132 -1.24747 -1.34561 0.594322 -4.05078 -0.218334 0.343481 -0.0642017
273 1 3.06119 20.0027 4.5132 0.40391 -0.0741893 3.19324 5.34267 -4.06457 -0.462065 0.107004 -0.307497
166 1 7.16241 18.5363 2.99887 0.698547 0.150344 -2.49931 0.175422 -4.11347 0.154305 0.0174115 -0.394372
265 1 5.71847 17.1429 4.63296 -1.6126 -0.82668 -3.54668 0.430561 -4.0672 -0.515451 0.242087 -0.0577
266 1 7.25348 18.553 5.9238 1.95445 3.37989 -0.145865 0.545655 -3.98696 -0.794897 0.100805 0.157395
267 1 8.63962 17.1234 4.43819 1.62128 1.24999 -1.44411 0.263044 -4.02198 -0.345578 0.0509917 0.69146
275 1 5.66392 19.9514 4.5195 0.0670137 -1.38317 -3.87798 0.301239 -4.05881 0.522039 0.341569 0.496554
277 1 8.52362 20.0544 4.50877 0.898333 -0.0775842 -0.479706 0.25431 -4.09109 0.812667 -0.0341978 0.10101
261 1 14.1769 17.1487 4.58986 3.22524 -0.724689 1.23685 0.354244 -4.09282 0.328183 0.430725 0.216577
168 1 9.9888 18.5753 3.04174 -3.61858 0.233632 -1.83299 0.204727 -4.02391 -0.30517 -0.698333 0.235299
170 1 12.8038 18.6463 3.14779 0.900172 4.64776 -2.52583 0.32807 -4.07034 0.276921 -0.305703 -0.429382
268 1 9.90461 18.5053 6.12441 4.57801 -0.241298 0.328247 4.52437 -4.01271 0.561139 0.271607 -0.375022
269 1 11.4148 17.1891 4.69583 1.22914 3.37173 -1.05524 0.389898 -4.03433 0.456191 0.625122 -1.12319
270 1 12.909 18.7314 6.01003 -1.75346 -1.91228 -0.862528 0.531792 -4.03415 -0.482415 -0.00807408 0.619882
279 1 11.3598 20.0486 4.48689 2.0114 -4.45816 0.994583 0.263636 -4.00873 -0.0886325 0.102491 0.370923
172 1 1.47279 21.4257 3.04484 2.33301 -0.225112 2.95214 0.273317 -4.06245 0.662448 0.225596 -0.0773797
174 1 4.32705 21.4567 2.89158 -1.27528 -0.710527 -1.51037 0.271798 -4.06802 0.142158 0.102102 0.259292
182 1 1.5749 24.1646 2.99724 -0.784188 -3.79054 -2.16947 0.0648135 -4.09633 -0.533495 0.404652 0.242667
184 1 4.3073 24.238 2.95457 -0.587332 0.565944 -1.32797 0.144107 -4.05174 0.423149 -0.427415 -0.103593
272 1 1.50093 21.4332 5.92963 -1.3891 0.701157 2.48604 0.36887 -4.10609 0.301905 -0.197447 0.722659
274 1 4.4257 21.4489 6.09128 2.59471 -0.91757 -0.537123 0.263666 -4.00414 0.190232 -0.373523 -0.624997
281 1 0.183488 22.7914 4.57296 -2.74019 0.616667 0.622568 0.154441 -3.98934 -0.301921 0.676646 -0.123024
282 1 1.52472 24.1909 6.09921 -1.23117 0.365724 -0.651941 0.161598 -4.06498 0.608917 0.158866 -0.623427
283 1 2.92311 22.8102 4.59073 1.18139 2.06881 4.32688 0.174811 -4.00491 0.842433 0.156577 0.0715582
284 1 4.42474 24.2671 6.06679 -2.88227 1.45219 3.65201 0.165686 -3.99785 0.301272 -0.355552 -0.213113
176 1 7.06694 21.3141 3.06554 -3.95137 -1.5893 -1.01736 0.391468 -4.0479 0.38091 -0.293074 -0.352775
186 1 7.17879 24.1447 2.90496 2.78581 2.06017 1.88695 0.190723 -3.97065 -0.018764 0.867731 -0.175602
276 1 7.10716 21.4372 6.08035 2.60993 -1.18025 -2.38511 0.242402 -4.02917 0.149568 -0.0921224 -0.173149
285 1 5.85589 22.7635 4.38463 1.31531 1.02106 -0.50399 0.540561 -3.99479 -0.810464 0.944704 0.768147
286 1 7.16944 24.2408 6.06076 1.08031 -1.08147 0.839848 0.281556 -4.02003 0.157649 -0.452062 -0.371753
287 1 8.6565 22.7436 4.43046 2.42 3.87829 -0.705154 4.78318 -4.17294 -0.20943 0.572525 0.267521
178 1 9.99102 21.4199 2.95928 -1.13098 -1.50552 3.15931 0.242675 -4.06828 0.660196 0.115234 -0.154293
180 1 12.8404 21.4228 3.09133 -0.471497 0.0061306 0.269058 0.293494 -4.17199 0.0635954 0.00902305 0.0787005
188 1 10.0407 24.0693 2.85376 -1.30348 -2.27273 0.479064 4.68707 -3.95532 -0.252203 1.15774 -0.0689234
190 1 12.925 24.1389 2.96952 -1.55903 -2.12372 1.13416 0.400625 -3.97011 -0.642157 0.212788 0.405139
278 1 9.94955 21.4304 6.13122 1.38589 -0.978514 1.96516 0.326339 -3.98143 -0.0285613 -0.5049 -0.655593
280 1 12.8739 21.3633 5.94364 1.61778 1.13426 1.57654 0.29285 -4.11449 0.205433 0.0755717 -0.0271141
288 1 10.0194 24.1956 6.11185 2.68269 2.22443 1.78439 0.387 -4.00139 -0.748698 -0.146806 -0.196927
289 1 11.3072 22.8471 4.51411 -3.96248 4.07387 -0.259648 0.489653 -4.08048 0.532092 0.0704678 0.0386614
290 1 12.8777 24.1232 5.9994 1.06046 -1.98762 3.24564 0.236964 -4.07706 -0.199203 0.411303 0.421671
192 1 1.54582 26.9795 3.02991 0.832332 -0.820942 0.130328 0.14654 -4.12004 -0.0618256 0.515923 -0.155431
194 1 4.33343 27.1078 2.97288 -1.61671 -3.20912 1.28134 0.250486 -4.04451 -0.139065 -0.462136 -0.520881
291 1 0.123486 25.6243 4.631 -1.91934 -0.395923 -0.219087 0.379203 -3.99096 -0.050807 -0.23561 -0.485371
292 1 1.58125 27.1181 5.91526 0.521729 -0.104332 -0.21211 0.266664 -4.10887 0.201618 -0.620279 0.0717913
293 1 3.0799 25.6086 4.48629 2.80973 1.17343 -0.298043 0.380486 -3.98327 -1.01872 0.211515 0.723126
294 1 4.2495 27.1204 5.99199 -1.17778 2.9951 1.58236 0.251699 -4.02979 0.671326 -0.0754045 -0.493714
196 1 7.3038 27.0489 3.11381 3.37805 -2.98627 4.17109 4.78524 -3.99642 -0.900593 -0.193594 -0.422662
295 1 5.73558 25.636 4.46555 2.43808 0.681994 -1.51506 0.157125 -4.06844 0.244345 -0.0801767 0.0335045
296 1 7.17419 27.0665 5.90514 0.309675 6.50899 -1.89168 0.24574 -3.96321 -0.0128607 0.315055 0.0776403
297 1 8.56397 25.5256 4.51177 -0.134748 1.31643 -3.31811 0.346652 -4.07317 0.852954 0.256183 -0.293734
209 1 11.3537 28.3011 4.57842 -0.393176 -1.47754 0.78913 5.71631 -3.94817 0.599515 0.734762 -0.754551
198 1 9.95313 27.0869 2.91122 0.689763 -0.698924 -1.31982 0.302964 -3.90337 0.233509 -0.431684 1.08348
200 1 13.0099 27.0067 2.96483 5.30296 -0.270392 0.651806 5.34993 -3.97898 -0.454734 0.0389008 0.137399
298 1 9.9521 27.1594 6.06944 1.28797 -2.74568 -4.13594 0.326153 -4.04642 -0.613792 -0.737743 0.311306
299 1 11.357 25.6421 4.55411 0.613569 6.18239 1.53807 6.02337 -3.977 0.276352 0.0815617 -0.274845
300 1 12.9347 27.0657 6.06173 -0.577292 -1.28953 -3.83829 0.298456 -4.05303 -0.52562 0.262261 0.344996
301 1 0.190771 0.330155 7.39717 0.5675 -0.168496 -2.46061 4.79016 -4.10431 0.131966 -0.677602 0.379701
302 1 1.52998 1.64637 9.16271 -1.42736 -3.15682 0.972455 0.290089 -4.05809 0.135375 -0.195086 -0.178729
303 1 2.87995 0.257353 7.55033 0.341516 -0.0404191 -2.60214 0.183056 -4.0887 -0.0397105 -0.414378 0.117815
304 1 4.29008 1.6221 9.00476 -4.04083 -0.468429 4.02966 0.152708 -4.00965 0.224113 0.460684 0.0669816
311 1 0.149724 2.85167 7.54207 -1.74976 0.28104 0.763369 5.07417 -3.99614 -0.0248087 1.12411 -0.280795
313 1 2.89377 2.99568 7.42926 0.148637 -0.416692 -0.495992 0.343732 -3.97972 -0.175136 0.636403 1.02864
403 1 2.9679 0.297361 10.588 0.394335 0.406084 2.23505 0.175569 -4.06458 0.138122 -0.673403 -0.203191
411 1 0.156785 3.04543 10.5429 0.660313 -0.658618 -1.38298 0.139219 -4.08262 -0.797776 0.434627 -0.213607
413 1 2.87494 3.0559 10.6526 -3.05234 -3.9865 -0.430171 0.33507 -4.10414 0.257737 0.260614 -0.267012
305 1 5.63949 0.272746 7.54604 -2.6762 0.601797 -1.53878 0.272817 -3.96112 0.744583 0.296632 -0.391024
306 1 7.16827 1.7968 9.03398 -0.497955 1.38302 -0.554626 0.424863 -3.94096 -0.439446 -1.12019 0.606853
307 1 8.54451 0.339894 7.59021 2.06573 -1.47317 -0.377265 0.318768 -4.07123 -0.24277 -1.04581 0.114974