ITEM: TIMESTEP
31750
ITEM: NUMBER OF ATOMS
2000
ITEM: BOX BOUNDS pp pp pp
1.0838953229856951e-01 1.4221610467701321e+01
2.1677906459713903e-01 2.8443220935402643e+01
-4.6263140020379678e-01 5.7782631400203357e+01
ITEM: ATOMS id type x y z vx vy vz c_csym c_peratom fx fy fz
2 1 1.62332 1.66863 1.00094 -0.282889 -3.25185 -0.636516 0.277419 -4.09845 -0.240719 0.282943 -0.429106
4 1 4.35789 1.61575 0.930235 0.990702 -5.33602 3.45801 0.219643 -4.13516 0.375925 0.268389 0.888061
11 1 0.115605 3.14255 -0.415586 0.617832 -0.194419 3.50607 0.204925 -4.05964 0.0723984 -0.206684 -0.110662
101 1 0.126621 0.284403 2.42307 -1.57173 1.46596 2.1275 0.151593 -4.10303 0.0115366 -0.256927 -0.434748
103 1 2.85007 0.270771 2.48147 0.287695 0.367304 -1.8153 0.237523 -3.999 0.699916 -0.136605 0.117416
111 1 0.168447 3.08626 2.44899 -2.2925 0.592843 0.179022 0.130408 -4.14285 0.0449739 -0.217601 -0.202202
113 1 2.87763 3.13123 2.50336 -1.71434 2.42111 -1.1208 0.326664 -4.07401 -0.0302122 0.181123 -0.379931
13 1 2.94284 3.10367 -0.443994 -0.0706192 -1.95523 0.774801 0.0717641 -4.02928 -0.0472493 0.361512 -0.304881
6 1 7.17995 1.58532 0.99432 -1.53139 -1.81767 -2.43971 0.225184 -4.09867 -0.104606 0.673943 -0.0350384
17 1 8.63608 3.25517 -0.394821 -1.24355 -0.0988133 -0.860341 4.92551 -4.05743 -0.64514 -1.14932 -0.358075
105 1 5.90739 0.22905 2.45041 0.812795 -1.48127 -4.16198 0.293703 -4.07815 -0.335952 -0.516655 -0.153888
115 1 5.79048 3.13764 2.43597 -0.932742 0.818202 0.0439582 0.179683 -4.04408 -0.0612407 -0.477505 -0.0733126
117 1 8.60233 3.08029 2.5147 0.475293 0.415756 -1.302 0.15811 -4.06101 -0.405246 0.111835 -0.88032
15 1 5.86915 3.09703 -0.406672 -1.1078 -3.23994 -0.243916 0.288454 -4.01207 -0.302594 0.275896 -0.407029
8 1 9.98472 1.71462 0.881367 1.02028 2.64764 -1.65962 0.373776 -4.05163 -0.734411 0.0709826 1.36797
9 1 11.3244 0.287262 -0.364308 -0.628437 1.37052 0.162777 0.382557 -4.04647 0.947993 -0.152061 -0.248375
10 1 12.8557 1.68831 0.930754 -0.261261 2.58464 0.684826 0.13062 -4.03203 -0.203953 0.0947775 0.213005
109 1 11.3921 0.306018 2.42111 4.17545 -4.26001 3.01885 0.166508 -4.0839 -0.148463 -0.495223 -0.147563
119 1 11.4562 3.11085 2.36814 -0.877516 0.612354 1.13148 0.149527 -4.10791 -0.452399 -0.221166 -0.239036
12 1 1.52356 4.6359 0.900834 1.18436 1.40208 1.05812 0.55719 -4.05256 0.148295 -0.172805 0.0653514
14 1 4.34915 4.42365 1.09199 -0.761965 1.11821 -1.53086 0.269083 -4.09759 0.000197331 0.0390402 -0.494114
22 1 1.54026 7.32431 0.927546 0.529166 1.27637 -0.648244 0.236179 -4.03888 -0.383375 -0.349637 0.682028
23 1 3.01689 5.92797 -0.435672 4.21453 0.286138 -0.65637 0.221423 -4.04208 -0.373575 0.163161 -0.379904
24 1 4.35552 7.36387 0.996034 0.718611 1.41969 0.425215 0.105159 -4.02739 -0.314049 -0.0215516 0.22921
121 1 0.132435 5.82793 2.4422 -2.35864 3.10392 -0.471262 0.182978 -4.03581 0.356321 0.56042 0.183334
123 1 3.01618 5.86763 2.53513 1.00139 1.8653 -1.24788 0.2521 -4.12779 -0.0420355 0.333292 -0.0157111
16 1 7.14135 4.5226 1.07131 0.603539 0.154603 0.133915 0.150459 -4.05711 0.209225 -0.375394 -0.342117
25 1 5.70759 5.92495 -0.347555 -0.827089 1.1553 2.35682 0.312173 -4.1374 -0.0989717 -0.71429 -0.959775
26 1 7.1412 7.16975 0.947687 -0.0337704 2.62343 0.778117 0.522245 -3.93464 0.46396 0.999761 0.4823
125 1 5.74127 5.95799 2.48447 -0.136011 -2.75282 -0.154075 0.137716 -4.19231 0.281156 0.185065 -0.101603
127 1 8.57446 5.88387 2.35233 -1.51658 -3.67076 0.00771245 0.352101 -4.09172 0.286468 -0.0437058 0.730742
18 1 10.0587 4.47472 0.997472 2.01504 1.15568 0.108705 0.20883 -4.05361 0.062605 0.411224 0.228556
20 1 12.7939 4.54238 0.964645 -0.022531 3.00342 -1.17168 0.0585317 -4.11824 0.0204449 0.137297 0.0178786
28 1 10.1169 7.35391 1.08452 1.08986 -1.21663 1.80841 0.397969 -4.02451 -0.47052 -0.531255 -0.293759
29 1 11.4127 5.98723 -0.44521 1.3822 1.47477 -0.555896 0.0534202 -4.12029 -0.384299 -0.528423 -0.232201
30 1 12.8531 7.28188 1.05681 0.362699 -0.519128 0.486825 0.134363 -4.13741 -0.0950552 0.796946 0.0186909
129 1 11.3642 5.90889 2.49144 -0.995542 1.01394 2.2528 0.107448 -4.10506 0.0924873 -0.215807 -0.447788
32 1 1.48279 10.1923 0.930005 2.66336 -1.18469 0.933482 0.216288 -4.12877 0.268758 -0.613196 0.557196
34 1 4.32744 10.195 0.930902 -3.42019 -1.92301 1.41173 0.183799 -4.07419 -0.210648 -0.604532 0.0928238
43 1 2.92107 11.628 -0.44071 2.17426 0.782241 3.50485 0.11271 -4.09566 -0.168729 -0.821378 -0.180144
133 1 2.87707 8.77788 2.47482 -1.44944 0.975575 0.710255 0.0895456 -4.07127 0.464311 -0.230453 0.242403
141 1 0.146359 11.6297 2.36302 -2.20193 -7.04944 -1.51669 0.298576 -4.11409 0.24988 0.28338 0.498332
143 1 2.92416 11.521 2.45174 -0.572232 1.1909 1.77002 0.159391 -4.12026 -0.599918 -0.0976586 -0.301574
36 1 7.17897 10.1662 1.04226 0.10168 3.47717 0.174941 0.161573 -3.99067 -0.104953 -0.457467 -0.286793
47 1 8.63625 11.4798 -0.361649 -1.46078 2.66256 0.234251 0.275094 -4.07027 -0.339395 -0.104068 -0.255372
135 1 5.71447 8.72482 2.54941 -0.880733 0.590278 -0.109653 0.27952 -4.08592 0.348868 0.322358 -0.800722
137 1 8.61908 8.74613 2.38837 -4.19951 1.4167 -2.48788 0.34916 -4.10716 -0.109296 -0.357702 0.0394933
145 1 5.78797 11.4174 2.45428 0.913579 -3.10787 0.676852 0.313672 -4.0639 -0.389875 0.575754 0.295101
147 1 8.63173 11.5707 2.55485 -2.52053 -2.66134 -2.016 0.182211 -4.08573 -0.140366 0.255009 -0.742357
37 1 8.64539 8.6808 -0.332431 -0.410704 1.96136 0.795798 0.35205 -4.13587 -0.435605 0.373176 -0.689522
41 1 14.1834 11.5242 -0.365493 -1.35835 -5.95404 3.83557 0.2349 -4.06273 0.0269134 0.575186 -0.182357
131 1 14.189 8.78043 2.56987 -1.59748 2.05417 3.03081 0.379327 -4.01658 0.956421 -0.564181 -0.443391
38 1 10.1092 10.2499 1.1093 0.647054 3.02786 -2.05404 0.490822 -4.07072 -1.05156 -0.593511 0.15218
39 1 11.3428 8.78317 -0.41129 2.80774 -0.622395 -1.00191 0.223046 -4.09166 0.697564 -0.0350167 0.205297
40 1 12.8549 10.1114 1.12645 -1.75728 -0.634733 -0.267602 0.232816 -4.09765 0.0314686 -0.0333493 -0.663407
139 1 11.4119 8.69776 2.53688 -0.425376 2.4171 -0.0430739 0.106549 -4.09623 0.111431 0.449203 -0.469477
149 1 11.4267 11.5446 2.53774 -0.904464 -0.906018 0.248794 0.171794 -4.07321 0.302051 0.40598 -0.0774167
49 1 11.351 11.4979 -0.383229 -3.94296 -1.72452 -3.57845 0.142146 -4.04406 0.810313 0.493502 -0.804545
42 1 1.60077 12.9976 0.913792 -0.841826 -0.173751 0.753914 0.415028 -4.08002 -0.608958 0.483313 0.603646
44 1 4.30049 12.9516 0.898865 -1.17519 0.372824 -0.13007 0.105227 -4.15132 0.458976 0.0131122 0.505823
52 1 1.58776 15.7356 1.13941 -0.585983 1.26946 1.71295 0.649502 -4.00297 -0.79061 -0.314517 -0.885207
54 1 4.38463 15.6552 0.992751 0.269637 0.959657 1.9614 0.263797 -4.0859 -0.583891 0.451552 0.10433
153 1 2.9946 14.2978 2.46464 -3.03426 -0.361765 3.65674 0.163764 -4.00866 -0.0812872 0.0276051 0.215808
46 1 7.13899 12.8477 0.968573 -0.042375 -0.703018 -2.37022 0.220676 -4.03896 -0.412424 0.204136 0.483483
56 1 7.08452 15.7726 0.915007 0.19616 0.505449 -1.21975 0.240943 -4.08474 0.0778389 -0.120819 -0.068349
155 1 5.76502 14.3443 2.4087 -0.699273 2.50818 -2.71856 0.102439 -4.09739 -0.24671 -0.336085 0.238592
157 1 8.53251 14.4644 2.49134 1.77519 1.9958 -4.01974 4.93766 -4.10528 0.222094 -0.491357 -0.20042
57 1 8.49816 14.3386 -0.324431 5.27468 2.46447 0.151665 0.471267 -3.99953 0.0627419 0.108028 -1.03544
51 1 14.0057 14.3518 -0.462223 5.08997 3.62125 -2.07853 4.63934 -4.00544 1.45936 -0.158952 0.179896
151 1 14.2009 14.4155 2.47289 -4.71089 2.01634 -0.85659 0.118554 -4.01638 -0.0892768 -0.546083 -0.0100919
48 1 9.93985 13.0563 1.01839 2.86016 2.34417 0.701272 0.266829 -4.08469 0.180736 -0.41838 0.188981
50 1 12.7181 12.9904 1.01573 0.559624 -1.36974 -0.820506 0.172953 -4.08708 0.0214263 -0.284522 -0.0626045
58 1 9.99316 15.7186 1.00066 -3.3381 -1.51398 5.38263 0.165384 -4.08493 0.361708 0.559177 0.148928
60 1 12.7967 15.7437 1.0062 1.53771 1.90327 -4.70531 0.11012 -4.07593 -0.258919 0.0453388 0.245118
159 1 11.3491 14.3264 2.5221 -0.265735 -1.65506 -3.98071 0.149767 -4.07981 0.286684 0.262314 -0.596698
62 1 1.43944 18.5161 1.0411 0.272627 0.831543 -0.200207 0.115034 -4.04099 0.389693 0.158966 -0.595109
64 1 4.38586 18.6552 1.04519 1.24428 1.0664 2.86252 5.00983 -4.03017 -0.215909 -0.897717 0.0155563
163 1 2.94245 17.1558 2.3617 0.341627 2.40032 0.506019 0.375552 -4.03842 0.392669 0.137712 0.563497
171 1 0.141802 19.9783 2.55862 -0.0590841 -1.37942 4.27312 0.164308 -4.1292 -0.394714 0.211238 -0.772793
173 1 2.89555 19.9823 2.44308 0.785649 -1.23368 2.3689 0.143059 -4.12101 -0.319293 -0.0641106 0.298122
66 1 7.24355 18.6165 1.04443 2.75597 -4.35103 0.905848 0.358983 -4.17017 -0.685367 -0.220019 0.371436
67 1 8.57677 17.1461 -0.438983 -4.30079 -3.56988 1.31798 0.0495219 -4.1512 -0.344357 -0.0838497 0.0182435
165 1 5.78304 17.093 2.39986 1.97311 1.99329 -0.167527 0.234612 -4.05482 -0.306089 -0.002746 0.0421
167 1 8.56005 17.078 2.34781 1.63712 1.01306 -0.622391 0.527413 -4.08331 0.0810239 0.118149 1.01397
175 1 5.70632 20.007 2.46839 -3.42076 -2.85137 2.01629 0.131102 -4.06505 0.659517 0.475965 -0.198545
177 1 8.58858 20.043 2.66887 -1.05917 0.80188 -0.731301 0.924492 -3.99955 -0.587297 -0.662462 -1.06524
75 1 5.71713 19.9361 -0.453424 -4.53949 -0.9021 2.29786 0.125339 -4.07729 -0.192828 0.0363855 -0.469793
65 1 5.67248 17.193 -0.416241 -1.31158 -3.63153 -0.620776 0.324658 -4.11477 0.563341 -0.0567103 -0.024273
161 1 14.1852 17.2046 2.56372 -8.06951 -0.86164 0.0732044 0.206578 -4.13714 -0.212278 -0.137627 -0.387016
68 1 9.83757 18.5862 1.07013 1.01621 0.95189 3.77626 0.49643 -4.12172 1.05716 0.763522 -0.383452
70 1 12.7582 18.5098 1.03067 -2.75978 -0.241021 0.901339 0.153917 -4.01778 0.00332232 0.329226 -0.563216
169 1 11.4357 17.1907 2.4581 -0.050047 0.778513 1.36961 0.107826 -4.0754 -0.359152 0.134928 0.468609
179 1 11.4548 19.9395 2.54141 0.478562 4.61523 -0.247094 0.242502 -4.10017 -0.172226 0.427544 -0.471503
69 1 11.3235 17.1806 -0.359504 2.51938 -0.439877 2.89062 0.204439 -4.09005 0.191768 -0.082822 -0.680159
71 1 14.189 20.001 -0.353005 -3.02828 1.71166 0.793185 0.291348 -3.9657 0.26047 -0.474434 -0.217644
61 1 14.2026 17.0274 -0.392312 -2.79754 0.110739 5.17862 0.284904 -4.03168 0.0728707 0.0157946 -0.264056
72 1 1.54936 21.3951 0.950054 2.3338 -3.4761 -2.56089 0.170175 -4.14072 -0.550971 -0.177025 -0.409643
74 1 4.24289 21.3195 1.07635 -0.775897 2.76848 -0.309503 0.348758 -4.16922 0.334803 0.342595 -0.330956
82 1 1.5098 24.075 0.879447 -0.197856 1.54937 -4.05427 0.282291 -4.12377 -0.198605 0.636185 0.323506
84 1 4.24694 24.1216 1.0221 1.75243 2.83472 -4.12876 0.384111 -4.02029 1.01695 0.613926 -0.739174
181 1 0.128659 22.763 2.408 -3.03311 -1.67311 -0.629939 0.0457676 -4.08536 -0.277024 -0.124425 -0.307672
183 1 2.89382 22.7594 2.36672 0.572942 -1.11899 -0.365379 0.148124 -4.11624 0.143223 0.373611 0.88612
76 1 7.14056 21.2635 0.99661 -0.691281 0.193514 1.05787 0.360972 -4.00505 -0.107956 0.566266 -0.151799
86 1 7.25436 24.2668 0.999164 -2.43118 3.29649 -1.15762 0.395744 -3.96602 -0.162766 -0.312183 -0.406311
185 1 5.72509 22.8979 2.37165 3.67767 -2.14848 -3.35625 0.461053 -4.09114 0.196881 -0.875916 -0.0149675
187 1 8.47118 22.692 2.53816 -0.732136 -0.532565 -1.73565 0.561313 -4.08748 0.296825 0.0626745 -1.03691
78 1 9.92402 21.3232 0.942684 -2.14879 -1.2859 1.20999 0.210403 -4.09598 -0.0617419 0.121156 0.53888
80 1 12.7264 21.3466 1.01552 -2.02506 0.894117 1.33119 0.0630548 -4.04151 0.676552 0.155923 -0.450302
88 1 9.99398 24.1702 1.03877 -1.34963 2.3224 -3.76156 0.192078 -4.11605 -0.395525 0.465233 -0.262132
90 1 12.8226 24.1983 0.910541 -3.32555 -1.34099 0.789537 0.174684 -4.06238 -0.94051 0.156806 0.678491
189 1 11.404 22.6532 2.39044 1.1462 2.87937 3.03823 0.281424 -4.00365 -0.150516 0.920006 0.0665323
92 1 1.49183 27.0716 0.986234 -1.55268 0.823337 -0.21304 0.0680242 -4.0706 0.00448529 -0.500537 0.0909713
93 1 2.95679 25.6072 -0.443566 -2.98218 -1.24306 2.03838 0.160745 -4.10227 -0.132896 0.58723 -0.389265
94 1 4.31233 27.0701 1.13963 -2.42482 -0.468398 -1.32983 0.630865 -4.011 -0.626914 -0.233668 -0.607305
193 1 2.87926 25.4829 2.3811 -1.0862 0.475835 1.41936 0.400214 -4.02661 0.186521 0.450614 -0.00172102
5 1 5.72241 28.2956 -0.384381 2.69086 -0.906142 0.0342517 0.556633 -4.06571 -0.336257 0.465361 -0.455139
107 1 8.62684 28.3911 2.48517 1.62718 -2.83475 -3.52836 0.288737 -4.1146 -0.539707 0.874366 -0.791976
96 1 7.19496 27.0059 0.988386 3.8854 -2.09663 -3.2721 0.0366415 -4.10929 -0.558509 0.203087 0.147269
195 1 5.7699 25.6353 2.39568 -1.7019 -1.17403 1.74296 0.122628 -4.0719 0.0206351 -0.176643 0.290274
197 1 8.65402 25.6862 2.44694 -0.592902 -0.620959 0.00800132 0.313256 -4.10849 -0.82098 -0.509704 0.586767
7 1 8.51249 28.4072 -0.363908 0.305773 -1.36188 3.04787 0.31892 -4.04973 -0.0839324 0.421394 -0.747171
191 1 14.1954 25.5315 2.40463 -0.0885336 -4.4938 -0.48509 0.206205 -3.99721 0.705491 -0.011798 -0.756872
98 1 9.85719 27.0277 0.945431 2.60699 4.64685 0.62246 0.385891 -4.14667 1.17762 0.18738 0.0647111
100 1 12.8111 27.1397 0.998705 0.688756 2.41483 -3.36628 0.109279 -4.07248 -0.137622 -0.535217 -0.017564
199 1 11.3947 25.7747 2.44847 -1.77748 -0.753815 0.440887 0.57673 -4.02883 0.338389 -0.626844 0.239226
99 1 11.3966 25.6653 -0.402126 -3.11862 -0.640777 0.494149 0.135536 -4.08646 -0.109909 -0.176681 -0.0495683
102 1 1.43258 1.58866 3.93166 7.38627 -3.29026 1.48818 0.2914 -4.0922 0.365324 -0.0583134 -0.131636
104 1 4.40471 1.70471 3.84456 -2.62904 -0.431866 -2.50035 0.22338 -4.09345 -1.04913 0.0368911 -0.499643
202 1 1.64591 1.56967 6.70684 2.02744 3.5456 -1.59179 0.586637 -4.06396 -1.27133 0.974094 0.741568
203 1 2.94499 0.259696 5.32069 -1.3304 -3.48688 0.0854903 0.126377 -4.10852 0.441846 0.0778509 -0.230559
204 1 4.18458 1.68524 6.7852 -0.935437 1.48785 2.63114 4.29834 -4.07265 1.29474 -0.377994 -0.284009
213 1 2.88677 3.08084 5.28763 -2.28947 -0.845795 -1.07431 0.338449 -4.11866 -0.0120726 -0.133049 0.244824
106 1 7.15632 1.63052 3.83002 0.736671 -1.16949 0.0239501 0.227298 -4.14199 0.633037 0.63626 0.549888
205 1 5.64874 0.299036 5.19094 2.33469 0.995414 0.291621 0.540037 -4.00662 1.14307 -0.774874 1.72774
206 1 7.2548 1.68985 6.74804 -1.46106 -1.55409 1.7364 0.345501 -4.03816 -0.201263 -0.845127 0.0784429
207 1 8.58474 0.236208 5.39386 1.31666 3.04051 1.49325 0.141401 -4.05871 0.289393 0.478778 -0.824623
215 1 5.78167 2.95842 5.4444 -1.49422 -2.50707 3.51511 0.500569 -4.05652 -0.0870832 0.0785105 -0.811727
217 1 8.60442 3.0921 5.34304 -1.80041 2.92479 -5.24384 0.120419 -4.09111 -0.186116 0.0371763 0.214194
201 1 14.2143 0.277593 5.39737 -0.76465 1.66164 -3.30675 0.30833 -4.10804 -0.197859 -0.247196 -0.119221
211 1 14.1953 3.09372 5.44933 0.131749 -3.47244 0.658656 0.250301 -4.08602 -0.0835334 -0.76682 -0.278936
108 1 9.98023 1.81548 3.95247 1.78008 -0.0382443 0.481447 0.563037 -4.01072 0.564696 -1.28163 -0.150457
110 1 12.7567 1.63776 3.86569 0.143622 0.261967 0.471904 0.156076 -4.00057 0.217077 0.149798 0.250603
208 1 9.93587 1.5992 6.83375 -2.11946 3.54369 -4.60115 0.124151 -4.18146 0.258354 0.256653 0.0352913
210 1 12.7168 1.62492 6.86101 1.93469 -2.84729 3.21644 0.350642 -4.04837 -0.296025 0.161901 -0.476316
219 1 11.4042 3.08595 5.36692 2.96876 -3.6 -0.306264 0.0649545 -4.04358 -0.354286 -0.0901158 0.217079
112 1 1.47335 4.44722 4.01217 -2.08488 5.53109 1.88305 0.2254 -4.03046 0.202337 0.637725 -0.30752
114 1 4.45714 4.53943 4.02411 0.408107 -1.46821 1.68028 0.425718 -4.0974 -0.100196 -0.314409 0.0540142
122 1 1.5387 7.19477 3.98058 -2.178 2.10286 -1.52883 0.263603 -3.99872 -0.501413 0.155391 -0.499438
124 1 4.30599 7.3213 3.95877 -1.70609 -0.894295 0.386355 0.156043 -3.99244 -0.235838 0.136855 0.0766619
212 1 1.5107 4.56417 6.83968 1.71349 1.1107 -0.37813 0.377891 -4.10558 0.194532 -0.878712 0.23487
214 1 4.35594 4.34938 6.8571 -3.60792 0.888428 1.10906 4.69271 -4.09931 -0.106021 0.384916 -0.668036
222 1 1.54559 7.23945 6.81906 2.60978 -1.28947 -2.65909 0.155054 -4.11623 -0.356379 -0.209051 0.0931502
223 1 3.00176 5.86832 5.40487 -2.9209 -3.41332 -1.19244 0.119408 -4.11508 -0.298594 -0.318803 -0.00183129
224 1 4.45542 7.31972 6.85356 2.28078 -2.16034 3.83898 0.290039 -4.0556 -0.770661 0.106574 -0.804085
116 1 7.08446 4.43511 3.95918 -0.717838 -0.661302 1.69127 0.354618 -4.10896 0.571547 0.208404 0.00408047
126 1 7.33953 7.39572 3.93897 1.37971 -3.46356 0.697126 0.483518 -4.00229 -0.743245 -0.333656 -0.407388
216 1 7.15048 4.45322 6.7082 0.663868 1.20315 1.59813 0.319538 -4.1422 -0.161265 0.565127 0.164891
225 1 5.7941 6.05956 5.32311 0.299468 -1.75276 -1.18853 0.612999 -4.05472 -0.192341 -0.414049 0.596631
226 1 7.22143 7.27669 6.82172 -1.92098 2.73055 -2.00716 0.109468 -4.1455 -0.185417 0.300461 0.263519
227 1 8.61587 5.8789 5.32943 -0.532809 -0.371899 0.126652 0.127397 -4.052 -0.155642 0.0770436 0.230062
221 1 14.1524 5.86373 5.41838 0.796103 -1.93786 -0.0692733 0.12328 -4.07924 0.118914 0.0138142 -0.646616
118 1 10.0291 4.4796 3.92364 -2.00022 0.251406 -1.34662 0.0982787 -4.13574 0.0892858 -0.0451622 -0.486741
120 1 12.7727 4.51546 3.86232 -2.93314 -0.0391201 0.674702 0.106658 -4.12016 0.283342 0.0225712 0.544767
128 1 10.0124 7.32217 3.87691 -2.7644 2.28321 3.1472 0.121414 -4.11658 -0.776951 0.00483703 0.371627
130 1 12.7448 7.26336 3.88258 -1.8326 -3.86476 -3.53257 0.155269 -4.12051 0.355104 -0.363325 0.273261
218 1 9.92391 4.44006 6.81614 2.54663 2.02038 1.45237 0.0873047 -4.12892 0.0986433 0.317425 0.192971
220 1 12.7806 4.44772 6.80827 -0.879614 -1.25736 1.20844 0.0619294 -4.01368 -0.0142521 -0.131021 0.460376
228 1 9.92162 7.27115 6.89753 0.0778168 -0.255412 1.79302 0.251163 -4.10345 0.400261 0.196436 0.0867802
229 1 11.2652 5.91426 5.39899 0.58398 1.74186 -1.1864 0.296769 -4.10128 1.04403 -0.242568 0.13069
230 1 12.8446 7.35538 6.73646 2.31232 0.678649 1.21522 0.270778 -4.07098 -0.803346 -0.786409 0.402764
132 1 1.49806 10.2454 3.84444 0.926583 1.77752 2.20689 0.197946 -4.04248 -0.00923112 -0.539066 0.412333
134 1 4.33421 10.2257 3.97599 -1.95039 -2.01599 -1.69927 0.271022 -4.04476 0.305601 -0.929796 -0.00612768
232 1 1.56015 10.1641 6.83485 2.12226 0.0705619 -0.681687 0.204311 -4.11401 -0.700792 -0.211849 -0.44469
233 1 2.86938 8.7146 5.42087 -0.683116 0.194601 5.31636 0.143058 -4.06318 0.104133 0.0797599 -0.714349
234 1 4.30212 10.2221 6.81416 -0.621179 0.157015 -0.123602 5.1615 -4.10056 0.845607 -0.716826 -0.00638735
241 1 0.149986 11.5192 5.32448 -2.41095 0.904273 -0.0212207 0.0902951 -4.08099 0.171147 0.183891 8.71059e-05
243 1 2.87755 11.525 5.27382 -0.234391 0.744033 0.670144 0.23335 -4.05095 -0.374703 -0.0743555 0.167577
136 1 7.34978 10.1327 3.95427 0.629619 0.98562 1.20116 0.35938 -4.10024 -0.898481 0.279185 -0.141158
235 1 5.87066 8.81598 5.29683 0.465343 -1.43871 1.4062 0.367383 -4.09006 -0.81107 -0.418212 -0.0283807
236 1 7.13391 10.1574 6.84066 2.36863 -0.429749 -0.449581 0.255781 -4.13213 0.204865 -0.0943046 0.0726875
237 1 8.63235 8.75913 5.51102 2.56455 0.935182 0.542097 0.344396 -4.136 -0.246322 0.203299 -0.667106
245 1 5.87987 11.5851 5.35892 0.240801 -0.541356 -0.243051 0.422454 -4.07679 -0.250712 0.173358 -0.00249923
247 1 8.6244 11.498 5.46388 0.432483 -3.51449 2.45946 0.188994 -4.14223 0.10993 0.436692 -0.262004
231 1 14.2058 8.74973 5.32349 -0.187028 1.52542 1.17023 0.0851266 -4.13807 0.559501 -0.026208 -0.200603
138 1 9.92992 10.142 3.88986 -1.64946 -2.47072 4.24093 0.261093 -4.15588 0.672688 -0.204652 0.414429
140 1 12.8378 10.2224 3.89771 -3.06779 0.590986 0.953237 0.18753 -4.14394 -0.364313 -0.579059 0.37858
238 1 10.0462 10.0877 6.84 4.00462 1.03455 -0.403308 0.138168 -4.04738 0.290363 0.265499 0.725582
239 1 11.364 8.67474 5.33058 1.07823 -1.10089 5.00007 0.0958287 -4.11446 0.129926 -0.187101 -0.323958
240 1 12.788 10.0949 6.66911 0.473313 1.12475 -2.36237 0.35638 -4.01234 0.0742443 0.303684 1.39449
249 1 11.3994 11.5636 5.4535 0.00818624 4.09037 -1.73351 0.236031 -4.09629 -0.371485 -0.278649 0.0555507
142 1 1.52181 13.0509 3.99666 -1.28477 -4.17543 2.9049 0.337742 -4.14114 0.244697 -0.482743 -0.678805
144 1 4.29805 12.8216 3.83446 1.81958 -2.20134 0.0142737 4.68285 -4.07896 0.817657 0.581034 0.412234
152 1 1.51339 15.8576 3.97332 -0.669006 2.84052 -0.820189 5.0823 -4.17563 0.631699 -0.783877 -0.4401
154 1 4.25725 15.7179 3.89012 2.46855 -1.35996 -1.82568 0.303338 -4.07572 0.552048 0.0822997 -0.165865
242 1 1.53992 12.9165 6.78433 0.280113 3.4737 -1.1283 0.114947 -4.16193 -0.0241697 0.194854 0.407865
244 1 4.24982 12.7782 6.81031 2.14938 -0.0921022 -0.749942 5.06584 -4.10162 -0.000581741 0.674094 -0.159291
251 1 0.128475 14.4623 5.42065 2.68999 -0.1114 0.508103 0.219173 -4.07799 -0.460643 -0.237283 -0.267617
252 1 1.63436 15.7834 6.69888 -3.12021 0.366244 0.726554 0.445351 -4.02736 -0.0946137 -0.361049 0.42849
253 1 3.02926 14.3678 5.39603 0.643288 -2.70259 -2.00417 0.348258 -4.03945 -0.398874 -0.0626116 -0.504471
254 1 4.32401 15.7314 6.90171 -3.29084 -1.84392 -1.68306 0.262335 -4.03997 -0.0185482 0.152266 -0.351417
146 1 7.13468 12.9886 3.90414 1.04428 0.1527 -2.62964 0.131049 -3.94943 0.856917 -0.630259 0.204572
156 1 7.1141 15.8395 3.93041 -5.45427 -4.00032 2.42238 0.285843 -4.05768 0.192964 -0.289484 -0.160345
246 1 7.17912 12.9922 6.85386 0.991656 -1.68864 -0.448699 0.13424 -4.04056 0.326644 0.0319149 -0.248732
255 1 5.79332 14.3612 5.31517 0.949383 2.2935 -3.25327 0.174046 -4.12759 -0.806553 -0.208425 0.65649
256 1 7.19239 15.8423 6.71999 -0.861153 0.781607 -0.146585 0.363039 -4.06003 0.314445 -0.814377 0.21339
257 1 8.60857 14.4287 5.41209 -2.00567 3.54744 2.76289 0.0717623 -4.09114 -0.430352 -0.783732 -0.478198
148 1 10.0789 12.8625 3.99909 2.53119 -0.204599 1.59625 0.296701 -4.04421 -0.366187 0.616944 0.0863557
150 1 12.8144 12.9078 3.96605 0.842405 -1.04171 -0.584461 0.153774 -4.14341 0.284395 0.581873 -0.158237
158 1 10.0599 15.8093 3.98248 1.95172 -4.28031 -2.67566 0.24744 -4.05911 0.04436 -0.267013 -0.217784
160 1 12.7974 15.8078 3.88548 2.05154 2.79304 -0.0709358 0.182403 -4.09451 0.193006 -0.0897081 0.395125
248 1 10.001 13.0598 6.85871 1.15591 3.93167 -3.97146 0.325191 -4.04571 0.0186628 -0.111411 -0.230635
250 1 12.9049 12.9601 6.7641 1.45982 -1.9964 -1.75047 0.249568 -4.10336 -0.00949197 -0.10678 0.541178
258 1 10.0849 15.781 6.82162 3.15439 -2.57917 -3.22034 0.183353 -4.12905 -0.451524 -0.527743 0.282563
259 1 11.5154 14.2983 5.3574 2.36546 0.76793 -0.871017 0.265338 -4.0985 -0.603007 0.55392 0.47468
260 1 12.7221 15.7462 6.84864 1.07372 0.97037 -2.70378 0.524567 -4.01891 0.479304 -0.00321621 0.465905
162 1 1.61205 18.4318 3.91657 0.103087 0.473685 0.329909 4.79232 -4.08767 0.105996 0.671757 0.059615
164 1 4.41893 18.6151 3.80597 -0.211573 3.22505 -5.20284 0.331915 -4.06121 -0.732754 -0.614554 0.734783
262 1 1.64124 18.6991 6.79932 -1.57751 0.894061 -4.43727 0.341965 -4.11983 -0.875933 -0.513514 0.0577686
263 1 3.02324 17.1738 5.34447 -2.37006 -0.133771 0.32695 0.255221 -4.10512 -0.0889386 0.0952604 0.103151
264 1 4.25569 18.5351 6.93937 2.99979 1.41468 -0.253245 0.466925 -4.06247 0.446854 0.471397 -0.196934
271 1 0.239882 19.931 5.25559 -2.9132 -1.24747 -1.34561 0.578032 -4.06715 -0.431036 0.149598 0.479844
273 1 3.06119 20.0027 5.36006 0.40391 -0.0741893 3.19324 0.352593 -4.10952 -0.603641 0.522729 -0.456496
166 1 7.16241 18.5363 3.89884 0.698547 0.150344 -2.49931 0.165742 -4.1704 0.235922 -0.345366 -0.0321605
265 1 5.71847 17.1429 5.47562 -1.6126 -0.82668 -3.54668 0.40645 -4.10455 -0.53232 0.521092 -0.687117
266 1 7.25348 18.553 6.72119 1.95445 3.37989 -0.145865 0.529375 -4.02777 -0.795093 -0.182733 0.475068
267 1 8.63962 17.1234 5.28768 1.62128 1.24999 -1.44411 0.254346 -4.05695 -0.524879 0.404974 0.795435
275 1 5.66392 19.9514 5.36614 0.0670137 -1.38317 -3.87798 0.295251 -4.09848 0.637694 -0.223547 0.359454
277 1 8.52362 20.0544 5.35578 0.898333 -0.0775842 -0.479706 0.249389 -4.12959 0.2805 -0.204501 0.641731
261 1 14.1769 17.1487 5.43403 3.22524 -0.724689 1.23685 0.349184 -4.12667 0.0668023 0.471807 0.110202
168 1 9.9888 18.5753 3.94021 -3.61858 0.233632 -1.83299 0.193499 -4.07332 0.000578775 -0.312701 -0.21856
170 1 12.8038 18.6463 4.04254 0.900172 4.64776 -2.52583 0.314386 -4.09515 0.0317275 -0.607937 -0.630962
268 1 9.90461 18.5053 6.91476 4.57801 -0.241298 0.328247 0.28987 -4.05031 0.63939 0.276716 -0.626132
269 1 11.4148 17.1891 5.53628 1.22914 3.37173 -1.05524 0.369196 -4.05964 0.741609 0.781756 -1.33852
270 1 12.909 18.7314 6.8044 -1.75346 -1.91228 -0.862528 0.524097 -4.07381 -0.615418 -0.24958 0.401305
279 1 11.3598 20.0486 5.33467 2.0114 -4.45816 0.994583 0.25317 -4.05241 -0.32583 0.00543157 0.422637
172 1 1.47279 21.4257 3.9432 2.33301 -0.225112 2.95214 0.266221 -4.09713 0.657432 -0.122461 -0.0875225
174 1 4.32705 21.4567 3.79531 -1.27528 -0.710527 -1.51037 0.261014 -4.09726 -0.00627437 0.181232 0.204551
182 1 1.5749 24.1646 3.89727 -0.784188 -3.79054 -2.16947 0.0643028 -4.14711 -0.510546 0.506684 0.372149
184 1 4.3073 24.238 3.85609 -0.587332 0.565944 -1.32797 0.142325 -4.08366 0.0725067 -0.369094 0.0242291
272 1 1.50093 21.4332 6.72682 -1.3891 0.701157 2.48604 0.354446 -4.13013 0.458368 -0.365429 1.18442
274 1 4.4257 21.4489 6.88279 2.59471 -0.91757 -0.537123 0.254374 -4.03283 0.127242 -0.215048 -0.621437
281 1 0.183488 22.7914 5.41772 -2.74019 0.616667 0.622568 0.146499 -4.00937 -0.585518 0.50951 -0.83457
282 1 1.52472 24.1909 6.89044 -1.23117 0.365724 -0.651941 0.156202 -4.106 0.638741 -0.271651 -0.542112
283 1 2.92311 22.8102 5.43487 1.18139 2.06881 4.32688 0.165285 -4.04838 0.855718 0.120382 -0.0859113
284 1 4.42474 24.2671 6.85916 -2.88227 1.45219 3.65201 0.158275 -4.03861 -0.084357 -0.24808 -0.128339
176 1 7.06694 21.3141 3.96317 -3.95137 -1.5893 -1.01736 0.386132 -4.06473 0.0852079 -0.449634 -1.16381
186 1 7.17879 24.1447 3.80823 2.78581 2.06017 1.88695 0.18506 -4.00488 -0.370158 1.04523 0.113488
276 1 7.10716 21.4372 6.87225 2.60993 -1.18025 -2.38511 0.235069 -4.06392 -0.0339964 -0.306116 0.0611674
285 1 5.85589 22.7635 5.236 1.31531 1.02106 -0.50399 0.520753 -4.02956 -1.09219 1.38215 1.09686
286 1 7.16944 24.2408 6.85334 1.08031 -1.08147 0.839848 0.26609 -4.05569 -0.35479 -0.578161 -0.77421
287 1 8.6565 22.7436 5.28022 2.42 3.87829 -0.705154 0.325097 -4.21989 -0.893053 0.338176 0.503598
178 1 9.99102 21.4199 3.86064 -1.13098 -1.50552 3.15931 0.233139 -4.07829 0.835736 -0.0568579 0.0443707
180 1 12.8404 21.4228 3.98806 -0.471497 0.0061306 0.269058 0.281139 -4.20251 -0.164929 0.221163 -0.185634
188 1 10.0407 24.0693 3.75882 -1.30348 -2.27273 0.479064 0.790917 -3.9822 -0.217909 1.04391 0.32608
190 1 12.925 24.1389 3.87052 -1.55903 -2.12372 1.13416 0.397971 -4.02047 -0.653709 0.0342686 0.125557
278 1 9.94955 21.4304 6.92134 1.38589 -0.978514 1.96516 0.307277 -4.00168 -0.262956 -0.548863 -0.7342
280 1 12.8739 21.3633 6.74033 1.61778 1.13426 1.57654 0.282991 -4.16152 -0.0774611 0.42514 -0.119741
288 1 10.0194 24.1956 6.90264 2.68269 2.22443 1.78439 0.367646 -4.02108 -0.724801 -0.154291 0.0673528
289 1 11.3072 22.8471 5.36094 -3.96248 4.07387 -0.259648 0.483176 -4.11738 0.262517 0.00522417 0.52808
290 1 12.8777 24.1232 6.79414 1.06046 -1.98762 3.24564 0.234456 -4.11766 -0.110615 0.548752 0.423356
192 1 1.54582 26.9795 3.9288 0.832332 -0.820942 0.130328 0.143331 -4.17795 -0.35084 0.466503 -0.337386
194 1 4.33343 27.1078 3.87376 -1.61671 -3.20912 1.28134 0.247863 -4.08265 -0.219321 -0.901477 -0.63469
291 1 0.123486 25.6243 5.47373 -1.91934 -0.395923 -0.219087 0.360126 -4.01507 0.257651 -0.552257 -0.868446
292 1 1.58125 27.1181 6.71294 0.521729 -0.104332 -0.21211 0.253823 -4.15275 -0.0126402 -0.659001 0.479296
293 1 3.0799 25.6086 5.3341 2.80973 1.17343 -0.298043 0.377996 -4.01937 -1.09944 0.135999 0.681286
294 1 4.2495 27.1204 6.78699 -1.17778 2.9951 1.58236 0.249243 -4.07165 0.794686 -0.383712 -0.207612
196 1 7.3038 27.0489 4.00975 3.37805 -2.98627 4.17109 0.558435 -4.03238 -0.801515 0.107177 -0.55011
295 1 5.73558 25.636 5.31408 2.43808 0.681994 -1.51506 0.151679 -4.12084 0.029706 -0.218555 0.000851168
296 1 7.17419 27.0665 6.70318 0.309675 6.50899 -1.89168 0.236224 -3.98685 -0.192461 0.415508 -0.0305862
297 1 8.56397 25.5256 5.35868 -0.134748 1.31643 -3.31811 0.338661 -4.13092 1.21704 0.0130048 -0.103035
209 1 11.3537 28.3011 5.42299 -0.393176 -1.47754 0.78913 5.56343 -3.99557 0.426495 0.681706 -0.767722
198 1 9.95313 27.0869 3.81427 0.689763 -0.698924 -1.31982 0.288718 -3.92034 0.282327 -0.349315 1.55839
200 1 13.0099 27.0067 3.866 5.30296 -0.270392 0.651806 5.21185 -4.01301 -0.730508 -0.052326 0.548998
298 1 9.9521 27.1594 6.86172 1.28797 -2.74568 -4.13594 0.323791 -4.06479 -0.276312 -1.11806 0.498123
299 1 11.357 25.6421 5.39953 0.613569 6.18239 1.53807 0.318976 -4.04288 0.293305 0.18971 -0.253513
300 1 12.9347 27.0657 6.85428 -0.577292 -1.28953 -3.83829 0.293447 -4.09062 -0.586631 -0.0308337 0.31559
301 1 0.190771 0.330155 8.14289 0.5675 -0.168496 -2.46061 4.67852 -4.13209 0.243428 -0.63552 0.561389
302 1 1.52998 1.64637 9.84651 -1.42736 -3.15682 0.972455 0.273211 -4.08696 0.33426 -0.25242 -0.250203
303 1 2.87995 0.257353 8.29068 0.341516 -0.0404191 -2.60214 0.179418 -4.11358 -0.188223 -0.262321 0.423291
304 1 4.29008 1.6221 9.69409 -4.04083 -0.468429 4.02966 0.14859 -4.05754 0.163172 0.494426 0.222736
311 1 0.149724 2.85167 8.28271 -1.74976 0.28104 0.763369 4.95858 -4.04621 -0.395329 1.78768 -0.851981
313 1 2.89377 2.99568 8.17385 0.148637 -0.416692 -0.495992 0.329895 -4.01532 -0.308535 0.828677 1.17642
403 1 2.9679 0.297361 11.2218 0.394335 0.406084 2.23505 0.172382 -4.09557 0.0904372 -0.647064 -0.101427
411 1 0.156785 3.04543 11.1783 0.660313 -0.658618 -1.38298 0.133973 -4.12143 -0.38234 0.233644 -0.0735935
413 1 2.87494 3.0559 11.2841 -3.05234 -3.9865 -0.430171 0.316731 -4.13768 0.649676 -0.0116765 -0.716464
305 1 5.63949 0.272746 8.28653 -2.6762 0.601797 -1.53878 0.269741 -4.02244 1.0149 0.397479 -0.514858
306 1 7.16827 1.7968 9.72229 -0.497955 1.38302 -0.554626 0.42276 -3.95492 -0.533132 -1.45305 0.439155
307 1 8.54451 0.339894 8.32916 2.06573 -1.47317 -0.377265 0.309153 -4.10836 -0.425445 -0.706715 0.278369
315 1 5.88369 2.98404 8.20622 0.746495 3.22544 0.384377 0.618905 -4.05147 -0.899383 0.314217 0.335633