ITEM: TIMESTEP
68000
ITEM: NUMBER OF ATOMS
2000
ITEM: BOX BOUNDS pp pp pp
1.0838953229856951e-01 1.4221610467701321e+01
2.1677906459713903e-01 2.8443220935402643e+01
-1.4858399180204964e+00 5.8805839918020055e+01
ITEM: ATOMS id type x y z vx vy vz c_csym c_peratom fx fy fz
2 1 1.62332 1.66863 0.0291544 -0.282889 -3.25185 -0.636516 0.278068 -4.06041 -0.201571 -0.256139 -0.240055
4 1 4.35789 1.61575 -0.0440356 0.990702 -5.33602 3.45801 0.229585 -4.08845 0.00208966 0.0716556 0.386785
11 1 0.115605 3.14255 -1.43714 0.617832 -0.194419 3.50607 0.217439 -4.01197 -0.404515 0.13736 0.0827385
101 1 0.126621 0.284403 1.50125 -1.57173 1.46596 2.1275 0.152147 -4.07712 0.185553 -0.189558 -0.504519
103 1 2.85007 0.270771 1.5617 0.287695 0.367304 -1.8153 0.240939 -3.96171 0.223368 -0.149912 0.0845946
111 1 0.168447 3.08626 1.52808 -2.2925 0.592843 0.179022 0.131874 -4.08691 -0.239804 0.0025588 -0.197506
113 1 2.87763 3.13123 1.58436 -1.71434 2.42111 -1.1208 0.331888 -4.03376 0.090052 -0.224339 0.26215
13 1 2.94284 3.10367 -1.46655 -0.0706192 -1.95523 0.774801 0.0730713 -3.98181 -0.038498 -0.077814 0.281995
6 1 7.17995 1.58532 0.0223008 -1.53139 -1.81767 -2.43971 0.228015 -4.05328 0.226265 0.599719 0.187294
17 1 8.63608 3.25517 -1.41565 -1.24355 -0.0988133 -0.860341 5.03874 -4.03173 -0.500686 -0.477458 -0.0962485
105 1 5.90739 0.22905 1.52955 0.812795 -1.48127 -4.16198 0.294558 -4.0457 -0.554517 -0.167121 0.183124
115 1 5.79048 3.13764 1.5146 -0.932742 0.818202 0.0439582 0.181556 -4.0154 -0.200447 -0.2635 -0.0502873
117 1 8.60233 3.08029 1.5961 0.475293 0.415756 -1.302 0.164466 -4.01925 0.129526 0.130859 -0.551212
15 1 5.86915 3.09703 -1.42791 -1.1078 -3.23994 -0.243916 0.293391 -3.96602 -0.172078 0.217907 -0.697777
8 1 9.98472 1.71462 -0.0946213 1.02028 2.64764 -1.65962 0.396091 -4.01884 -0.400424 -0.32277 0.889446
9 1 11.3244 0.287262 -1.38406 -0.628437 1.37052 0.162777 0.398295 -4.01574 1.03113 -0.210059 -0.23179
10 1 12.8557 1.68831 -0.0434982 -0.261261 2.58464 0.684826 0.13581 -3.99559 0.0641135 0.0390585 0.438301
109 1 11.3921 0.306018 1.49922 4.17545 -4.26001 3.01885 0.168745 -4.03456 -0.0530272 -0.425629 -0.349256
119 1 11.4562 3.11085 1.44439 -0.877516 0.612354 1.13148 0.154018 -4.07066 -0.480051 -0.388894 0.0545465
12 1 1.52356 4.6359 -0.0744701 1.18436 1.40208 1.05812 0.573276 -4.01437 0.346444 -0.347951 -0.0124539
14 1 4.34915 4.42365 0.123402 -0.761965 1.11821 -1.53086 0.273245 -4.06797 0.240598 -0.056373 -0.390932
22 1 1.54026 7.32431 -0.0468198 0.529166 1.27637 -0.648244 0.246588 -3.99497 0.0467005 -0.176964 0.537655
23 1 3.01689 5.92797 -1.45793 4.21453 0.286138 -0.65637 0.223466 -3.99725 -0.502486 -0.291137 -0.480561
24 1 4.35552 7.36387 0.024075 0.718611 1.41969 0.425215 0.107826 -3.99941 -0.566533 -0.146731 -0.0650484
121 1 0.132435 5.82793 1.52105 -2.35864 3.10392 -0.471262 0.187047 -4.00127 -0.0615455 0.571778 -0.313454
123 1 3.01618 5.86763 1.61725 1.00139 1.8653 -1.24788 0.256554 -4.07653 -0.310012 0.200837 -0.443432
16 1 7.14135 4.5226 0.101993 0.603539 0.154603 0.133915 0.155745 -4.0262 -0.0844728 0.00869022 -0.422659
25 1 5.70759 5.92495 -1.36672 -0.827089 1.1553 2.35682 0.323764 -4.09767 -0.0115207 -0.532551 -0.600707
26 1 7.1412 7.16975 -0.0259704 -0.0337704 2.62343 0.778117 5.02605 -3.91951 0.0132825 1.32101 0.328159
125 1 5.74127 5.95799 1.56481 -0.136011 -2.75282 -0.154075 0.138272 -4.15351 0.35774 0.111767 0.443525
127 1 8.57446 5.88387 1.42803 -1.51658 -3.67076 0.00771245 0.370388 -4.04736 0.491336 0.173 0.909653
18 1 10.0587 4.47472 0.0255635 2.01504 1.15568 0.108705 0.212991 -4.02696 -0.216041 0.343857 0.316027
20 1 12.7939 4.54238 -0.00841729 -0.022531 3.00342 -1.17168 0.0607815 -4.08261 -0.0922395 0.0700984 0.14396
28 1 10.1169 7.35391 0.115674 1.08986 -1.21663 1.80841 0.40611 -3.9996 -0.576812 -0.352584 -0.171118
29 1 11.4127 5.98723 -1.46781 1.3822 1.47477 -0.555896 0.0538081 -4.07792 -0.430004 -0.225606 -0.0964273
30 1 12.8531 7.28188 0.0869811 0.362699 -0.519128 0.486825 0.136018 -4.08988 -0.0886432 0.33274 0.190993
129 1 11.3642 5.90889 1.57202 -0.995542 1.01394 2.2528 0.109726 -4.07498 0.479744 0.0111074 0.101084
32 1 1.48279 10.1923 -0.0442739 2.66336 -1.18469 0.933482 0.226887 -4.11207 0.418457 -0.579534 0.370036
34 1 4.32744 10.195 -0.0433458 -3.42019 -1.92301 1.41173 0.190582 -4.04022 -0.0601338 -0.397324 0.183913
43 1 2.92107 11.628 -1.46315 2.17426 0.782241 3.50485 0.116659 -4.07799 0.0904173 -0.473516 0.0304931
133 1 2.87707 8.77788 1.55481 -1.44944 0.975575 0.710255 0.0909183 -4.01229 0.277116 -0.356897 -0.185107
141 1 0.146359 11.6297 1.43908 -2.20193 -7.04944 -1.51669 0.313728 -4.08887 0.266891 0.193409 0.574612
143 1 2.92416 11.521 1.53093 -0.572232 1.1909 1.77002 0.162662 -4.09626 -0.214438 0.169782 -0.0860913
36 1 7.17897 10.1662 0.07193 0.10168 3.47717 0.174941 0.165933 -3.95811 0.239681 -0.338594 -0.160766
47 1 8.63625 11.4798 -1.38131 -1.46078 2.66256 0.234251 0.283806 -4.03873 -0.606691 0.244193 -0.646542
135 1 5.71447 8.72482 1.63203 -0.880733 0.590278 -0.109653 0.287722 -4.03153 0.612132 0.155587 -0.105329
137 1 8.61908 8.74613 1.46533 -4.19951 1.4167 -2.48788 0.361057 -4.06918 -0.444466 -0.193254 -0.329221
145 1 5.78797 11.4174 1.53355 0.913579 -3.10787 0.676852 0.314444 -4.0232 -0.25691 0.550872 0.230696
147 1 8.63173 11.5707 1.63766 -2.52053 -2.66134 -2.016 0.189065 -4.0498 -0.440652 0.562776 -0.624329
37 1 8.64539 8.6808 -1.35106 -0.410704 1.96136 0.795798 0.364731 -4.09985 -0.182503 0.332152 -0.0119713
41 1 14.1834 11.5242 -1.38529 -1.35835 -5.95404 3.83557 0.243872 -4.03819 -0.19271 0.366159 -0.059858
131 1 14.189 8.78043 1.65321 -1.59748 2.05417 3.03081 0.398193 -3.97462 0.898352 -0.173731 -0.632957
38 1 10.1092 10.2499 0.141325 0.647054 3.02786 -2.05404 0.494631 -4.04841 -0.754878 -0.637891 0.130365
39 1 11.3428 8.78317 -1.43269 2.80774 -0.622395 -1.00191 0.223564 -4.05461 0.352259 -0.386755 0.254701
40 1 12.8549 10.1114 0.15907 -1.75728 -0.634733 -0.267602 0.242784 -4.0593 -0.363895 -0.241572 -0.381642
139 1 11.4119 8.69776 1.61905 -0.425376 2.4171 -0.0430739 0.109136 -4.07373 -0.253556 0.398743 -0.147142
149 1 11.4267 11.5446 1.61995 -0.904464 -0.906018 0.248794 0.175853 -4.04891 -0.281162 0.0159066 -0.554652
49 1 11.351 11.4979 -1.40365 -3.94296 -1.72452 -3.57845 0.144016 -4.01019 0.513808 -0.0488123 -0.359769
42 1 1.60077 12.9976 -0.0610567 -0.841826 -0.173751 0.753914 0.425377 -4.04667 -0.372057 -0.0339166 0.256795
44 1 4.30049 12.9516 -0.0765081 -1.17519 0.372824 -0.13007 0.109338 -4.11529 0.425987 0.154923 0.256616
52 1 1.58776 15.7356 0.172485 -0.585983 1.26946 1.71295 0.679126 -3.9502 -0.702659 -0.379705 -0.612407
54 1 4.38463 15.6552 0.0206764 0.269637 0.959657 1.9614 0.270986 -4.06234 -0.727868 0.103676 -0.388067
153 1 2.9946 14.2978 1.54428 -3.03426 -0.361765 3.65674 0.165521 -3.98445 -0.141254 -0.116509 0.211968
46 1 7.13899 12.8477 -0.00435067 -0.042375 -0.703018 -2.37022 0.224302 -4.00651 -0.0739222 0.240128 0.101436
56 1 7.08452 15.7726 -0.0597993 0.19616 0.505449 -1.21975 0.251339 -4.06317 -0.0702119 -0.409236 -0.258865
155 1 5.76502 14.3443 1.48638 -0.699273 2.50818 -2.71856 0.103353 -4.05178 0.315101 -0.263169 0.227151
157 1 8.53251 14.4644 1.57192 1.77519 1.9958 -4.01974 5.05344 -4.06303 -0.122389 -0.375651 -0.161591
57 1 8.49816 14.3386 -1.34278 5.27468 2.46447 0.151665 0.497855 -3.95615 0.0989539 -0.0944688 -0.866091
51 1 14.0057 14.3518 -1.48542 5.08997 3.62125 -2.07853 4.76187 -3.96289 1.46163 -0.524394 -0.311819
151 1 14.2009 14.4155 1.55282 -4.71089 2.01634 -0.85659 0.122279 -3.97214 -0.224838 -0.544578 0.229186
48 1 9.93985 13.0563 0.0472167 2.86016 2.34417 0.701272 0.270582 -4.04004 0.562722 -0.338668 0.312756
50 1 12.7181 12.9904 0.0444674 0.559624 -1.36974 -0.820506 0.177829 -4.04625 0.184221 -0.339254 0.13927
58 1 9.99316 15.7186 0.0288622 -3.3381 -1.51398 5.38263 0.17126 -4.0596 0.0132324 0.119584 -0.147156
60 1 12.7967 15.7437 0.0345948 1.53771 1.90327 -4.70531 0.111855 -4.05153 0.0234212 0.120409 0.734021
159 1 11.3491 14.3264 1.60376 -0.265735 -1.65506 -3.98071 0.151864 -4.04627 0.0766862 -0.0563672 -0.424783
62 1 1.43944 18.5161 0.0707193 0.272627 0.831543 -0.200207 0.116031 -4.00488 0.179133 0.295805 -0.366825
64 1 4.38586 18.6552 0.0749562 1.24428 1.0664 2.86252 5.15155 -4.0001 0.0167171 -0.505939 -0.0700339
163 1 2.94245 17.1558 1.43772 0.341627 2.40032 0.506019 0.390862 -4.01359 0.80129 0.371765 0.308384
171 1 0.141802 19.9783 1.64156 -0.0590841 -1.37942 4.27312 0.169893 -4.10343 -0.564845 0.110678 -0.464372
173 1 2.89555 19.9823 1.52196 0.785649 -1.23368 2.3689 0.14601 -4.08452 -0.648842 -0.118219 0.31875
66 1 7.24355 18.6165 0.0741677 2.75597 -4.35103 0.905848 5.41282 -4.12671 -0.543636 0.142547 0.0201178
67 1 8.57677 17.1461 -1.46136 -4.30079 -3.56988 1.31798 0.0495527 -4.12269 -0.155615 -0.448584 -0.0883121
165 1 5.78304 17.093 1.47722 1.97311 1.99329 -0.167527 0.23917 -4.02154 -0.508209 0.371303 0.30207
167 1 8.56005 17.078 1.42335 1.63712 1.01306 -0.622391 4.64298 -4.06749 0.377981 -0.0467196 0.932332
175 1 5.70632 20.007 1.54816 -3.42076 -2.85137 2.01629 0.133535 -4.03018 0.577277 0.314738 -0.253704
177 1 8.58858 20.043 1.75569 -1.05917 0.80188 -0.731301 0.973606 -3.98799 -0.374828 -0.433029 -0.634892
75 1 5.71713 19.9361 -1.47631 -4.53949 -0.9021 2.29786 0.128891 -4.04096 0.0400685 0.185069 -0.823872
65 1 5.67248 17.193 -1.43782 -1.31158 -3.63153 -0.620776 0.331261 -4.08194 0.475132 -0.0467794 -0.275201
161 1 14.1852 17.2046 1.64684 -8.06951 -0.86164 0.0732044 0.213759 -4.10458 -0.392068 0.249036 -0.441729
68 1 9.83757 18.5862 0.100775 1.01621 0.95189 3.77626 5.21611 -4.08621 0.713061 0.734062 -0.247382
70 1 12.7582 18.5098 0.0599268 -2.75978 -0.241021 0.901339 0.155995 -3.97099 0.494146 0.511114 -0.231731
169 1 11.4357 17.1907 1.53751 -0.050047 0.778513 1.36961 0.109827 -4.03333 -0.597146 0.0109066 0.420654
179 1 11.4548 19.9395 1.62375 0.478562 4.61523 -0.247094 0.247004 -4.0652 -0.273712 0.171958 -0.450188
69 1 11.3235 17.1806 -1.37909 2.51938 -0.439877 2.89062 0.213404 -4.0417 0.385432 0.0234083 -0.531668
71 1 14.189 20.001 -1.37236 -3.02828 1.71166 0.793185 0.299989 -3.92515 0.0840133 -0.348604 -0.0382486
61 1 14.2026 17.0274 -1.41305 -2.79754 0.110739 5.17862 0.292596 -3.99288 0.0316512 -0.19352 0.239016
72 1 1.54936 21.3951 -0.0235204 2.3338 -3.4761 -2.56089 0.174129 -4.10806 -0.36123 0.226506 -0.270039
74 1 4.24289 21.3195 0.107216 -0.775897 2.76848 -0.309503 0.361995 -4.15545 0.518052 0.0458951 -0.266131
82 1 1.5098 24.075 -0.0966079 -0.197856 1.54937 -4.05427 0.289529 -4.0879 -0.0366921 0.361488 -0.0666484
84 1 4.24694 24.1216 0.0510599 1.75243 2.83472 -4.12876 0.391634 -3.99513 0.484594 0.243072 -0.539629
181 1 0.128659 22.763 1.48565 -3.03311 -1.67311 -0.629939 0.0467309 -4.06779 0.0133486 -0.616173 -0.178396
183 1 2.89382 22.7594 1.44292 0.572942 -1.11899 -0.365379 0.156717 -4.09686 -0.231766 0.0607388 0.522814
76 1 7.14056 21.2635 0.0246716 -0.691281 0.193514 1.05787 5.20909 -3.95333 0.389056 0.631547 0.0103575
86 1 7.25436 24.2668 0.0273148 -2.43118 3.29649 -1.15762 5.51491 -3.93674 -0.26838 -0.401322 -0.23611
185 1 5.72509 22.8979 1.44802 3.67767 -2.14848 -3.35625 0.46771 -4.05855 -0.0100161 -0.599423 0.0429032
187 1 8.47118 22.692 1.62039 -0.732136 -0.532565 -1.73565 0.579996 -4.04832 0.0650643 0.316274 -0.594566
78 1 9.92402 21.3232 -0.0311499 -2.14879 -1.2859 1.20999 0.218341 -4.06013 -0.0331556 0.117378 0.483709
80 1 12.7264 21.3466 0.0442406 -2.02506 0.894117 1.33119 0.0638787 -4.00724 0.514328 -0.223694 -0.44097
88 1 9.99398 24.1702 0.068312 -1.34963 2.3224 -3.76156 0.199651 -4.06596 -0.392427 0.255556 0.297166
90 1 12.8226 24.1983 -0.0644213 -3.32555 -1.34099 0.789537 0.179008 -4.01192 -0.664293 -0.324578 0.465791
189 1 11.404 22.6532 1.46747 1.1462 2.87937 3.03823 0.285834 -3.96803 0.377852 0.799432 -0.149497
92 1 1.49183 27.0716 0.0139302 -1.55268 0.823337 -0.21304 0.068669 -4.02192 -0.133698 -0.347451 0.421423
93 1 2.95679 25.6072 -1.4661 -2.98218 -1.24306 2.03838 0.166824 -4.04927 -0.155755 0.442647 -0.405495
94 1 4.31233 27.0701 0.172719 -2.42482 -0.468398 -1.32983 0.661291 -3.98442 -0.258302 -0.0940758 -0.827104
193 1 2.87926 25.4829 1.4578 -1.0862 0.475835 1.41936 0.408622 -3.99183 0.295818 0.867234 0.174745
5 1 5.72241 28.2956 -1.40484 2.69086 -0.906142 0.0342517 0.566839 -4.03513 0.0879519 0.48806 -0.698432
107 1 8.62684 28.3911 1.56553 1.62718 -2.83475 -3.52836 0.293833 -4.09514 -0.301864 1.22448 -0.76382
96 1 7.19496 27.0059 0.0161587 3.8854 -2.09663 -3.2721 0.0377009 -4.08441 -0.0306625 -0.197116 0.338006
195 1 5.7699 25.6353 1.4729 -1.7019 -1.17403 1.74296 0.129193 -4.01015 0.161118 0.0613308 0.617004
197 1 8.65402 25.6862 1.52596 -0.592902 -0.620959 0.00800132 0.318373 -4.08413 -0.392986 -0.716244 0.0905266
7 1 8.51249 28.4072 -1.38365 0.305773 -1.36188 3.04787 0.33245 -4.02187 -0.0052953 -0.0502191 -0.777759
191 1 14.1954 25.5315 1.48217 -0.0885336 -4.4938 -0.48509 0.20726 -3.96367 0.790262 0.268117 -0.806128
98 1 9.85719 27.0277 -0.0283063 2.60699 4.64685 0.62246 0.393846 -4.12805 0.656083 0.0689659 -0.0231253
100 1 12.8111 27.1397 0.02684 0.688756 2.41483 -3.36628 0.110135 -4.0319 0.123075 -0.6303 -0.133447
199 1 11.3947 25.7747 1.52754 -1.77748 -0.753815 0.440887 0.580712 -3.98634 0.562949 -0.774127 0.274974
99 1 11.3966 25.6653 -1.42321 -3.11862 -0.640777 0.494149 0.138224 -4.05852 -0.231043 -0.322704 0.350539
102 1 1.43258 1.58866 3.06284 7.38627 -3.29026 1.48818 0.294118 -4.07934 0.00575121 0.305079 0.379663
104 1 4.40471 1.70471 2.97268 -2.62904 -0.431866 -2.50035 0.227886 -4.04498 -0.986384 0.0247992 -0.393039
202 1 1.64591 1.56967 5.93553 2.02744 3.5456 -1.59179 4.51626 -4.05822 -0.532275 0.866492 0.103061
203 1 2.94499 0.259696 4.50068 -1.3304 -3.48688 0.0854903 0.127948 -4.09118 0.405409 0.320226 -0.639211
204 1 4.18458 1.68524 6.01664 -0.935437 1.48785 2.63114 4.42931 -4.04438 1.33136 -0.247596 0.0427099
213 1 2.88677 3.08084 4.46645 -2.28947 -0.845795 -1.07431 0.347818 -4.08287 0.209296 -0.143135 0.184542
106 1 7.15632 1.63052 2.95763 0.736671 -1.16949 0.0239501 0.235976 -4.11483 0.478592 0.599541 0.605116
205 1 5.64874 0.299036 4.36637 2.33469 0.995414 0.291621 0.562274 -3.97214 0.972397 -0.380872 1.10219
206 1 7.2548 1.68985 5.97817 -1.46106 -1.55409 1.7364 0.353737 -4.0099 -0.627314 -0.727128 0.0891402
207 1 8.58474 0.236208 4.57642 1.31666 3.04051 1.49325 0.147163 -4.02176 0.0675826 -0.115169 -1.11821
215 1 5.78167 2.95842 4.62873 -1.49422 -2.50707 3.51511 0.514015 -4.02805 -0.393647 0.16023 -0.260091
217 1 8.60442 3.0921 4.52381 -1.80041 2.92479 -5.24384 0.12141 -4.068 -0.130075 -0.442541 -0.0518198
201 1 14.2143 0.277593 4.58005 -0.76465 1.66164 -3.30675 0.315196 -4.07191 -0.00961829 -0.251127 -0.0827651
211 1 14.1953 3.09372 4.63383 0.131749 -3.47244 0.658656 0.262582 -4.03067 -0.0348899 -0.752251 -0.223974
108 1 9.98023 1.81548 3.08439 1.78008 -0.0382443 0.481447 5.46532 -3.97279 0.223041 -1.12703 0.305347
110 1 12.7567 1.63776 2.99456 0.143622 0.261967 0.471904 0.159201 -3.95649 0.514183 0.423511 0.801143
208 1 9.93587 1.5992 6.06689 -2.11946 3.54369 -4.60115 0.124327 -4.14705 0.626257 0.177364 0.170926
210 1 12.7168 1.62492 6.09512 1.93469 -2.84729 3.21644 0.354178 -4.01576 -0.304601 0.0687078 -0.369557
219 1 11.4042 3.08595 4.54853 2.96876 -3.6 -0.306264 0.0654863 -4.00564 -0.0347496 0.176045 -0.122348
112 1 1.47335 4.44722 3.14618 -2.08488 5.53109 1.88305 0.234546 -4.00368 0.032999 0.389009 -0.094277
114 1 4.45714 4.53943 3.15854 0.408107 -1.46821 1.68028 5.04227 -4.07661 -0.202681 -0.305615 -0.394901
122 1 1.5387 7.19477 3.11348 -2.178 2.10286 -1.52883 0.265385 -3.95808 -0.399736 0.440458 0.000626047
124 1 4.30599 7.3213 3.09091 -1.70609 -0.894295 0.386355 0.157697 -3.97818 0.149837 0.065258 0.325109
212 1 1.5107 4.56417 6.07303 1.71349 1.1107 -0.37813 0.379743 -4.07379 -0.0672347 -0.321478 -0.164623
214 1 4.35594 4.34938 6.09107 -3.60792 0.888428 1.10906 4.8077 -4.05205 0.0372981 0.482448 -0.851144
222 1 1.54559 7.23945 6.05169 2.60978 -1.28947 -2.65909 0.156554 -4.08558 -0.366736 0.116313 -0.0277136
223 1 3.00176 5.86832 4.58782 -2.9209 -3.41332 -1.19244 0.119777 -4.07861 0.254708 0.138332 -0.090713
224 1 4.45542 7.31972 6.0874 2.28078 -2.16034 3.83898 0.295755 -4.02457 -0.659876 0.348832 -0.377949
116 1 7.08446 4.43511 3.09133 -0.717838 -0.661302 1.69127 5.1406 -4.07173 0.594444 0.514778 -0.00910653
126 1 7.33953 7.39572 3.07041 1.37971 -3.46356 0.697126 0.49023 -3.96215 -0.38065 -0.195903 -0.0866698
216 1 7.15048 4.45322 5.93694 0.663868 1.20315 1.59813 0.332703 -4.10982 0.0365746 0.459231 0.391392
225 1 5.7941 6.05956 4.50318 0.299468 -1.75276 -1.18853 0.619467 -4.02257 -0.422217 -0.465266 0.265022
226 1 7.22143 7.27669 6.05445 -1.92098 2.73055 -2.00716 0.110569 -4.10866 0.136453 0.23189 0.400498
227 1 8.61587 5.8789 4.50972 -0.532809 -0.371899 0.126652 0.131782 -4.02634 -0.0637882 0.113962 0.206025
221 1 14.1524 5.86373 4.6018 0.796103 -1.93786 -0.0692733 0.126664 -4.05475 -0.154463 0.207894 -0.157746
118 1 10.0291 4.4796 3.05454 -2.00022 0.251406 -1.34662 0.10138 -4.10481 -0.412611 -0.0364301 -0.194112
120 1 12.7727 4.51546 2.99106 -2.93314 -0.0391201 0.674702 0.11187 -4.07653 -0.164692 -0.0485279 0.632448
128 1 10.0124 7.32217 3.00617 -2.7644 2.28321 3.1472 0.127179 -4.0871 -0.372844 -0.119809 -0.150482
130 1 12.7448 7.26336 3.01204 -1.8326 -3.86476 -3.53257 0.161001 -4.08828 0.448622 0.0535892 0.00687298
218 1 9.92391 4.44006 6.04867 2.54663 2.02038 1.45237 0.0881397 -4.09482 0.209098 0.0175076 0.174915
220 1 12.7806 4.44772 6.04052 -0.879614 -1.25736 1.20844 0.0632266 -3.97102 -0.000829266 -0.0347658 0.303852
228 1 9.92162 7.27115 6.13292 0.0778168 -0.255412 1.79302 0.257232 -4.07093 0.375349 0.137883 0.0997887
229 1 11.2652 5.91426 4.58173 0.58398 1.74186 -1.1864 0.299847 -4.07359 1.12774 0.220259 0.0163874
230 1 12.8446 7.35538 5.96619 2.31232 0.678649 1.21522 0.27463 -4.03869 -0.553516 -0.612526 0.14818
132 1 1.49806 10.2454 2.97256 0.926583 1.77752 2.20689 0.20171 -4.02019 -0.273538 -0.226774 0.514235
134 1 4.33421 10.2257 3.10873 -1.95039 -2.01599 -1.69927 0.276588 -4.00572 -0.0986638 -0.909635 0.443863
232 1 1.56015 10.1641 6.06804 2.12226 0.0705619 -0.681687 0.209914 -4.08632 -0.341155 -0.354622 -0.182193
233 1 2.86938 8.7146 4.60437 -0.683116 0.194601 5.31636 0.145014 -4.00042 0.336793 -0.145194 -0.441968
234 1 4.30212 10.2221 6.04662 -0.621179 0.157015 -0.123602 5.30011 -4.05422 0.407335 -0.114349 0.331807
241 1 0.149986 11.5192 4.5046 -2.41095 0.904273 -0.0212207 0.0921614 -4.0588 0.116469 -0.196958 0.154857
243 1 2.87755 11.525 4.45216 -0.234391 0.744033 0.670144 0.243415 -4.0298 0.175972 -0.16905 0.409653
136 1 7.34978 10.1327 3.08625 0.629619 0.98562 1.20116 4.89059 -4.08282 -0.619187 0.0339502 -0.124632
235 1 5.87066 8.81598 4.47597 0.465343 -1.43871 1.4062 0.378487 -4.05583 -0.768026 -0.498236 0.196234
236 1 7.13391 10.1574 6.07405 2.36863 -0.429749 -0.449581 0.259823 -4.10776 -0.294362 0.29281 0.106699
237 1 8.63235 8.75913 4.69769 2.56455 0.935182 0.542097 0.364213 -4.1181 0.114194 0.084609 -0.246754
245 1 5.87987 11.5851 4.54025 0.240801 -0.541356 -0.243051 0.423638 -4.04398 -0.409756 -0.259927 -0.135372
247 1 8.6244 11.498 4.64889 0.432483 -3.51449 2.45946 0.195321 -4.11363 0.210097 0.752641 -0.198021
231 1 14.2058 8.74973 4.50358 -0.187028 1.52542 1.17023 0.0861425 -4.09787 0.634675 -0.395005 -0.127002
138 1 9.92992 10.142 3.01957 -1.64946 -2.47072 4.24093 5.13231 -4.13113 0.909139 -0.0843353 0.645597
140 1 12.8378 10.2224 3.0277 -3.06779 0.590986 0.953237 0.192607 -4.10615 -0.236538 -0.463358 0.200897
238 1 10.0462 10.0877 6.07336 4.00462 1.03455 -0.403308 0.140906 -4.01216 0.0654408 -0.0218738 0.305467
239 1 11.364 8.67474 4.51091 1.07823 -1.10089 5.00007 0.0984186 -4.08609 0.170167 0.114699 -0.0182771
240 1 12.788 10.0949 5.89647 0.473313 1.12475 -2.36237 0.374906 -3.9749 0.13507 0.740667 1.09414
249 1 11.3994 11.5636 4.63815 0.00818624 4.09037 -1.73351 0.247037 -4.06755 -0.629061 -0.383062 -0.324886
142 1 1.52181 13.0509 3.13013 -1.28477 -4.17543 2.9049 0.350042 -4.09772 -0.115394 0.145569 -0.452048
144 1 4.29805 12.8216 2.96223 1.81958 -2.20134 0.0142737 4.7948 -4.03546 0.511354 0.808547 0.638599
152 1 1.51339 15.8576 3.10597 -0.669006 2.84052 -0.820189 5.2237 -4.14126 0.746637 -0.452866 -0.645178
154 1 4.25725 15.7179 3.01984 2.46855 -1.35996 -1.82568 0.306003 -4.0374 0.906553 0.471893 -0.101444
242 1 1.53992 12.9165 6.01574 0.280113 3.4737 -1.1283 0.119586 -4.11445 0.183131 0.23494 0.0980346
244 1 4.24982 12.7782 6.04263 2.14938 -0.0921022 -0.749942 5.21403 -4.06034 0.418997 0.296486 0.0533998
251 1 0.128475 14.4623 4.60415 2.68999 -0.1114 0.508103 0.224273 -4.03793 -0.467943 -0.0317219 -0.227402
252 1 1.63436 15.7834 5.92729 -3.12021 0.366244 0.726554 0.467732 -3.99588 -0.107515 -0.00758299 0.350447
253 1 3.02926 14.3678 4.57867 0.643288 -2.70259 -2.00417 0.354847 -4.0132 0.182829 -0.227242 -0.0719708
254 1 4.32401 15.7314 6.13724 -3.29084 -1.84392 -1.68306 0.277809 -4.01653 -0.162047 0.250452 -0.0813398
146 1 7.13468 12.9886 3.03435 1.04428 0.1527 -2.62964 0.131985 -3.91376 0.339307 -0.402617 -0.193683
156 1 7.1141 15.8395 3.06155 -5.45427 -4.00032 2.42238 0.291552 -4.03725 -0.162162 0.0180289 -0.110557
246 1 7.17912 12.9922 6.08771 0.991656 -1.68864 -0.448699 0.137665 -4.00704 0.196979 -0.433388 -0.227968
255 1 5.79332 14.3612 4.49497 0.949383 2.2935 -3.25327 0.178454 -4.06868 -0.763588 -0.130501 0.279793
256 1 7.19239 15.8423 5.94914 -0.861153 0.781607 -0.146585 0.376831 -4.05247 0.656431 -0.748018 -0.217163
257 1 8.60857 14.4287 4.59529 -2.00567 3.54744 2.76289 0.0733435 -4.04404 -0.282601 -0.524301 -0.346317
148 1 10.0789 12.8625 3.13264 2.53119 -0.204599 1.59625 0.29761 -4.01155 -0.529471 0.401312 0.0720283
150 1 12.8144 12.9078 3.09844 0.842405 -1.04171 -0.584461 0.157553 -4.11067 0.664183 0.407098 0.31799
158 1 10.0599 15.8093 3.11544 1.95172 -4.28031 -2.67566 0.254909 -4.01591 0.227965 0.0118225 -0.16711
160 1 12.7974 15.8078 3.01504 2.05154 2.79304 -0.0709358 0.191356 -4.05284 0.164598 -0.238326 0.412148
248 1 10.001 13.0598 6.09273 1.15591 3.93167 -3.97146 0.327476 -4.02345 0.35825 -0.241611 0.208021
250 1 12.9049 12.9601 5.9948 1.45982 -1.9964 -1.75047 0.260951 -4.07413 -0.328556 -0.175405 0.0645762
258 1 10.0849 15.781 6.05434 3.15439 -2.57917 -3.22034 5.34149 -4.10347 -0.683928 -0.295064 -0.0485738
259 1 11.5154 14.2983 4.53868 2.36546 0.76793 -0.871017 0.267115 -4.06875 -0.686734 0.299137 -0.0128566
260 1 12.7221 15.7462 6.0823 1.07372 0.97037 -2.70378 0.529796 -3.99378 0.358818 0.12372 -0.0922539
162 1 1.61205 18.4318 3.04723 0.103087 0.473685 0.329909 4.93966 -4.0517 -0.247924 0.756938 -0.0653302
164 1 4.41893 18.6151 2.93274 -0.211573 3.22505 -5.20284 0.344056 -4.03857 -0.650181 -0.41335 -0.00619035
262 1 1.64124 18.6991 6.03125 -1.57751 0.894061 -4.43727 4.95247 -4.08184 -0.832337 -0.226785 -0.24403
263 1 3.02324 17.1738 4.52529 -2.37006 -0.133771 0.32695 0.26242 -4.07779 0.0126613 0.199452 0.21063
264 1 4.25569 18.5351 6.17622 2.99979 1.41468 -0.253245 0.484048 -4.04486 0.857323 0.265616 -0.11951
271 1 0.239882 19.931 4.43329 -2.9132 -1.24747 -1.34561 0.593769 -4.05176 0.00140688 -0.165745 0.0839708
273 1 3.06119 20.0027 4.54142 0.40391 -0.0741893 3.19324 5.33775 -4.06638 -0.250752 0.482085 -0.308698
166 1 7.16241 18.5363 3.02887 0.698547 0.150344 -2.49931 0.175093 -4.11571 0.181239 -0.0222666 -0.306894
265 1 5.71847 17.1429 4.66105 -1.6126 -0.82668 -3.54668 0.429743 -4.06873 -0.665375 0.11302 -0.408976
266 1 7.25348 18.553 5.95038 1.95445 3.37989 -0.145865 0.545103 -3.98858 -0.837953 0.111428 0.419485
267 1 8.63962 17.1234 4.4665 1.62128 1.24999 -1.44411 0.262749 -4.02335 0.0145424 0.183329 0.348252
275 1 5.66392 19.9514 4.54772 0.0670137 -1.38317 -3.87798 0.301036 -4.06044 0.556213 -0.124039 0.546043
277 1 8.52362 20.0544 4.537 0.898333 -0.0775842 -0.479706 0.254143 -4.09279 0.762059 0.33018 0.123374
261 1 14.1769 17.1487 4.618 3.22524 -0.724689 1.23685 0.354072 -4.09428 0.16884 0.199773 -0.0327663
168 1 9.9888 18.5753 3.07169 -3.61858 0.233632 -1.83299 0.204346 -4.02581 -0.0361464 -0.373874 0.130713
170 1 12.8038 18.6463 3.17762 0.900172 4.64776 -2.52583 0.327606 -4.07146 -0.181906 -0.513386 -0.440716
268 1 9.90461 18.5053 6.15075 4.57801 -0.241298 0.328247 4.52075 -4.01422 0.56891 0.366117 -0.770995
269 1 11.4148 17.1891 4.72384 1.22914 3.37173 -1.05524 0.389196 -4.03547 0.615978 0.198494 -0.989203
270 1 12.909 18.7314 6.03651 -1.75346 -1.91228 -0.862528 0.531531 -4.03583 -0.267627 -0.267995 0.882362
279 1 11.3598 20.0486 4.51515 2.0114 -4.45816 0.994583 0.263281 -4.01053 -0.61252 -0.27135 0.432728
172 1 1.47279 21.4257 3.07479 2.33301 -0.225112 2.95214 0.273076 -4.06395 0.643886 0.0626046 0.0829971
174 1 4.32705 21.4567 2.9217 -1.27528 -0.710527 -1.51037 0.271433 -4.06935 -0.175204 0.14663 0.318779
182 1 1.5749 24.1646 3.02724 -0.784188 -3.79054 -2.16947 0.0647962 -4.09829 -0.623418 -0.0595317 0.516128
184 1 4.3073 24.238 2.98462 -0.587332 0.565944 -1.32797 0.144047 -4.05307 0.268459 -0.362597 -0.354909
272 1 1.50093 21.4332 5.9562 -1.3891 0.701157 2.48604 0.368381 -4.10725 0.0055328 -0.0930153 0.942233
274 1 4.4257 21.4489 6.11766 2.59471 -0.91757 -0.537123 0.263351 -4.00531 0.0157325 0.0972084 -0.675512
281 1 0.183488 22.7914 4.60112 -2.74019 0.616667 0.622568 0.154172 -3.9903 -0.162002 0.304446 -0.133727
282 1 1.52472 24.1909 6.12558 -1.23117 0.365724 -0.651941 0.161415 -4.06665 0.616884 0.0484294 -0.184171
283 1 2.92311 22.8102 4.61887 1.18139 2.06881 4.32688 0.174488 -4.00664 0.740747 0.237621 -0.102563
284 1 4.42474 24.2671 6.0932 -2.88227 1.45219 3.65201 0.165435 -3.99938 -0.161427 -0.304163 -0.378287
176 1 7.06694 21.3141 3.09546 -3.95137 -1.5893 -1.01736 0.391287 -4.04872 0.0298482 -0.0868639 -0.605421
186 1 7.17879 24.1447 2.93507 2.78581 2.06017 1.88695 0.190531 -3.97206 0.055872 0.723536 -0.00534341
276 1 7.10716 21.4372 6.10675 2.60993 -1.18025 -2.38511 0.242153 -4.03057 0.261905 -0.135986 0.0685173
285 1 5.85589 22.7635 4.41301 1.31531 1.02106 -0.50399 0.53989 -3.99624 -0.819943 1.05241 0.815136
286 1 7.16944 24.2408 6.08718 1.08031 -1.08147 0.839848 0.281032 -4.02144 -0.362844 -0.384753 -0.660395
287 1 8.6565 22.7436 4.45878 2.42 3.87829 -0.705154 4.77903 -4.17485 -0.771708 0.25366 0.370817
178 1 9.99102 21.4199 2.98933 -1.13098 -1.50552 3.15931 0.242352 -4.06893 0.368954 0.0910796 -0.0683241
180 1 12.8404 21.4228 3.12122 -0.471497 0.0061306 0.269058 0.293075 -4.17332 0.0868961 0.229037 0.394047
188 1 10.0407 24.0693 2.88393 -1.30348 -2.27273 0.479064 4.68295 -3.95649 -0.48488 1.10828 0.0877407
190 1 12.925 24.1389 2.99955 -1.55903 -2.12372 1.13416 0.400535 -3.97202 -0.916378 0.386316 0.157519
278 1 9.94955 21.4304 6.15756 1.38589 -0.978514 1.96516 0.325693 -3.98243 0.150725 -0.483372 -0.408635
280 1 12.8739 21.3633 5.9702 1.61778 1.13426 1.57654 0.292515 -4.11642 -0.153725 0.0529124 -0.142237
288 1 10.0194 24.1956 6.13821 2.68269 2.22443 1.78439 0.386343 -4.00229 -0.342455 -0.0127833 -0.00643956
289 1 11.3072 22.8471 4.54234 -3.96248 4.07387 -0.259648 0.489434 -4.082 0.296126 -0.225075 0.155247
290 1 12.8777 24.1232 6.02589 1.06046 -1.98762 3.24564 0.236879 -4.07869 -0.521904 0.490591 0.374133
192 1 1.54582 26.9795 3.05988 0.832332 -0.820942 0.130328 0.146431 -4.1223 0.0975016 0.513072 0.122668
194 1 4.33343 27.1078 3.00291 -1.61671 -3.20912 1.28134 0.250397 -4.04613 -0.20474 -0.24675 -0.668143
291 1 0.123486 25.6243 4.65909 -1.91934 -0.395923 -0.219087 0.378556 -3.99196 -0.233659 -0.438087 -0.557319
292 1 1.58125 27.1181 5.94184 0.521729 -0.104332 -0.21211 0.266228 -4.11055 -0.200535 -0.6107 0.0754817
293 1 3.0799 25.6086 4.51455 2.80973 1.17343 -0.298043 0.380402 -3.98469 -0.952941 0.0430864 0.367584
294 1 4.2495 27.1204 6.01849 -1.17778 2.9951 1.58236 0.251616 -4.03136 0.711364 0.194113 -0.279348
196 1 7.3038 27.0489 3.14367 3.37805 -2.98627 4.17109 4.7822 -3.99787 -0.595738 0.0791744 -0.826518
295 1 5.73558 25.636 4.49383 2.43808 0.681994 -1.51506 0.156941 -4.07046 0.288187 0.151424 0.214684
296 1 7.17419 27.0665 5.93174 0.309675 6.50899 -1.89168 0.245417 -3.96427 -0.025305 0.690124 0.156188
297 1 8.56397 25.5256 4.54 -0.134748 1.31643 -3.31811 0.346381 -4.07545 0.773388 0.0908184 -0.0578611
209 1 11.3537 28.3011 4.60657 -0.393176 -1.47754 0.78913 5.71113 -3.95005 0.82805 0.736407 -1.02457
198 1 9.95313 27.0869 2.94133 0.689763 -0.698924 -1.31982 0.302481 -3.90427 0.0460426 -0.50941 1.14143
200 1 13.0099 27.0067 2.99487 5.30296 -0.270392 0.651806 5.34524 -3.98043 -0.55437 -0.126802 0.377227
298 1 9.9521 27.1594 6.09585 1.28797 -2.74568 -4.13594 0.326073 -4.04749 -0.259823 -0.769392 0.229694
299 1 11.357 25.6421 4.58229 0.613569 6.18239 1.53807 6.01663 -3.97944 0.3053 -0.298857 -0.163686
300 1 12.9347 27.0657 6.08815 -0.577292 -1.28953 -3.83829 0.298286 -4.05456 -0.517598 -0.0455078 0.405387
301 1 0.190771 0.330155 7.42203 0.5675 -0.168496 -2.46061 4.78637 -4.10556 0.15171 -0.58583 0.448209
302 1 1.52998 1.64637 9.18551 -1.42736 -3.15682 0.972455 0.289517 -4.05938 -0.107254 -0.000315356 -0.547684
303 1 2.87995 0.257353 7.57501 0.341516 -0.0404191 -2.60214 0.182933 -4.08975 -0.102741 -0.340073 0.0179486
304 1 4.29008 1.6221 9.02774 -4.04083 -0.468429 4.02966 0.152569 -4.01153 0.0293307 0.427554 0.172824
311 1 0.149724 2.85167 7.56676 -1.74976 0.28104 0.763369 5.07025 -3.99811 -0.0731815 1.522 -0.197227
313 1 2.89377 2.99568 7.45408 0.148637 -0.416692 -0.495992 0.343262 -3.98123 -0.139398 0.354088 0.99584
403 1 2.9679 0.297361 10.6091 0.394335 0.406084 2.23505 0.175461 -4.06582 0.267378 -0.333786 -0.354352
411 1 0.156785 3.04543 10.5641 0.660313 -0.658618 -1.38298 0.139041 -4.08414 -0.376646 0.534583 -0.257587
413 1 2.87494 3.0559 10.6736 -3.05234 -3.9865 -0.430171 0.334448 -4.10556 0.208218 -0.0583911 -0.340522
305 1 5.63949 0.272746 7.57072 -2.6762 0.601797 -1.53878 0.272713 -3.96338 0.66835 0.0719476 -0.331733
306 1 7.16827 1.7968 9.05692 -0.497955 1.38302 -0.554626 0.424792 -3.94174 -0.666903 -0.865393 0.344244
307 1 8.54451 0.339894 7.61484 2.06573 -1.47317 -0.377265 0.318442 -4.07282 -0.28117 -0.736622 0.30279