ITEM: TIMESTEP
47500
ITEM: NUMBER OF ATOMS
2000
ITEM: BOX BOUNDS pp pp pp
1.0838953229856951e-01 1.4221610467701321e+01
2.1677906459713903e-01 2.8443220935402643e+01
-9.0719785966898336e-01 5.8227197859668543e+01
ITEM: ATOMS id type x y z vx vy vz c_csym c_peratom fx fy fz
2 1 1.62332 1.66863 0.578716 -0.282889 -3.25185 -0.636516 0.277698 -4.08378 -0.34856 -0.158395 -0.39389
4 1 4.35789 1.61575 0.506931 0.990702 -5.33602 3.45801 0.22392 -4.11754 -0.047898 -0.182218 0.490528
11 1 0.115605 3.14255 -0.859434 0.617832 -0.194419 3.50607 0.210309 -4.04142 -0.340654 0.11699 -0.191181
101 1 0.126621 0.284403 2.02255 -1.57173 1.46596 2.1275 0.151831 -4.09388 -0.0224501 0.0567545 -0.16221
103 1 2.85007 0.270771 2.08184 0.287695 0.367304 -1.8153 0.238993 -3.98511 0.578643 0.356479 -0.214379
111 1 0.168447 3.08626 2.04887 -2.2925 0.592843 0.179022 0.131039 -4.1207 -0.134666 0.191701 -0.258716
113 1 2.87763 3.13123 2.10407 -1.71434 2.42111 -1.1208 0.328912 -4.05879 -0.369445 0.0533505 -0.0126683
13 1 2.94284 3.10367 -0.888276 -0.0706192 -1.95523 0.774801 0.0723265 -4.01015 -0.44098 0.37592 0.0719324
6 1 7.17995 1.58532 0.571994 -1.53139 -1.81767 -2.43971 0.226402 -4.08146 0.157003 0.581226 0.133218
17 1 8.63608 3.25517 -0.838352 -1.24355 -0.0988133 -0.860341 4.97422 -4.0492 -0.367521 -0.653505 -0.128791
105 1 5.90739 0.22905 2.05031 0.812795 -1.48127 -4.16198 0.294071 -4.06723 -0.770753 -0.294926 0.211631
115 1 5.79048 3.13764 2.03565 -0.932742 0.818202 0.0439582 0.180489 -4.03454 0.0926424 -0.763472 0.058589
117 1 8.60233 3.08029 2.11558 0.475293 0.415756 -1.302 0.160844 -4.04526 -0.183297 -0.139939 -0.842982
15 1 5.86915 3.09703 -0.850384 -1.1078 -3.23994 -0.243916 0.290578 -3.99371 -0.048634 0.277272 -0.308137
8 1 9.98472 1.71462 0.457317 1.02028 2.64764 -1.65962 0.383377 -4.0397 -0.65236 -0.256188 1.12461
9 1 11.3244 0.287262 -0.807374 -0.628437 1.37052 0.162777 0.389328 -4.03589 1.02144 0.0624093 -0.595457
10 1 12.8557 1.68831 0.507458 -0.261261 2.58464 0.684826 0.132853 -4.01815 -0.25324 0.351978 0.284731
109 1 11.3921 0.306018 2.02057 4.17545 -4.26001 3.01885 0.167471 -4.06421 -0.106452 -0.350574 0.196172
119 1 11.4562 3.11085 1.96679 -0.877516 0.612354 1.13148 0.151459 -4.09408 -0.626946 -0.549974 -0.00747884
12 1 1.52356 4.6359 0.477081 1.18436 1.40208 1.05812 0.564111 -4.03823 0.201951 -0.318934 0.244889
14 1 4.34915 4.42365 0.671155 -0.761965 1.11821 -1.53086 0.270874 -4.08696 0.202304 0.226104 -0.582717
22 1 1.54026 7.32431 0.504201 0.529166 1.27637 -0.648244 0.240657 -4.02145 -0.348706 -0.31648 0.962672
23 1 3.01689 5.92797 -0.879826 4.21453 0.286138 -0.65637 0.222302 -4.02436 -0.646892 -0.0611086 -0.0358784
24 1 4.35552 7.36387 0.573735 0.718611 1.41969 0.425215 0.106307 -4.01702 -0.344266 0.344788 -0.0881057
121 1 0.132435 5.82793 2.04197 -2.35864 3.10392 -0.471262 0.184728 -4.0231 0.180428 0.184765 -0.339334
123 1 3.01618 5.86763 2.13633 1.00139 1.8653 -1.24788 0.254016 -4.10807 -0.221281 0.106894 -0.0806964
16 1 7.14135 4.5226 0.650157 0.603539 0.154603 0.133915 0.152733 -4.04561 0.137865 -0.0798083 -0.472183
25 1 5.70759 5.92495 -0.790365 -0.827089 1.1553 2.35682 0.31716 -4.1231 0.0878097 -0.538103 -0.867731
26 1 7.1412 7.16975 0.52465 -0.0337704 2.62343 0.778117 4.95308 -3.93029 0.00538194 1.29911 0.450365
125 1 5.74127 5.95799 2.08489 -0.136011 -2.75282 -0.154075 0.137955 -4.17827 0.279888 -0.0382633 -0.100913
127 1 8.57446 5.88387 1.95074 -1.51658 -3.67076 0.00771245 0.359969 -4.07545 0.323593 0.0981689 0.781701
18 1 10.0587 4.47472 0.575195 2.01504 1.15568 0.108705 0.21062 -4.04468 -0.280358 0.414887 0.273219
20 1 12.7939 4.54238 0.541866 -0.022531 3.00342 -1.17168 0.0594996 -4.10458 0.276123 0.0491916 0.492576
28 1 10.1169 7.35391 0.663576 1.08986 -1.21663 1.80841 0.401472 -4.01594 -0.662159 -0.0827286 -0.36012
29 1 11.4127 5.98723 -0.889511 1.3822 1.47477 -0.555896 0.0535871 -4.10428 -0.657357 -0.676745 -0.148335
30 1 12.8531 7.28188 0.635433 0.362699 -0.519128 0.486825 0.135075 -4.11898 0.017967 0.540885 -0.259782
129 1 11.3642 5.90889 2.09197 -0.995542 1.01394 2.2528 0.108428 -4.09419 0.0466918 -0.100343 -0.440115
32 1 1.48279 10.1923 0.506698 2.66336 -1.18469 0.933482 0.220848 -4.12469 -0.0147275 -0.431463 0.561313
34 1 4.32744 10.195 0.507608 -3.42019 -1.92301 1.41173 0.186718 -4.06177 -0.338269 -0.3741 0.600717
43 1 2.92107 11.628 -0.884942 2.17426 0.782241 3.50485 0.114409 -4.09082 -0.0357027 -0.864572 -0.161526
133 1 2.87707 8.77788 2.07509 -1.44944 0.975575 0.710255 0.0901362 -4.04811 0.21916 -0.304974 0.253174
141 1 0.146359 11.6297 1.96158 -2.20193 -7.04944 -1.51669 0.305095 -4.10575 0.37882 -0.193305 0.786928
143 1 2.92416 11.521 2.05166 -0.572232 1.1909 1.77002 0.160798 -4.1131 -0.0955877 -0.0234013 -0.136744
36 1 7.17897 10.1662 0.620671 0.10168 3.47717 0.174941 0.163449 -3.97908 -0.0372728 -0.112806 0.180879
47 1 8.63625 11.4798 -0.804674 -1.46078 2.66256 0.234251 0.278842 -4.0588 -0.496253 -0.325218 -0.291725
135 1 5.71447 8.72482 2.15082 -0.880733 0.590278 -0.109653 0.283049 -4.06447 0.640673 0.135454 -0.766634
137 1 8.61908 8.74613 1.98733 -4.19951 1.4167 -2.48788 0.354279 -4.09341 -0.117401 -0.0235859 0.0943348
145 1 5.78797 11.4174 2.05424 0.913579 -3.10787 0.676852 0.314004 -4.04894 -0.406977 0.620499 0.476847
147 1 8.63173 11.5707 2.15634 -2.52053 -2.66134 -2.016 0.18516 -4.07289 -0.244685 0.649274 -1.07336
37 1 8.64539 8.6808 -0.77501 -0.410704 1.96136 0.795798 0.357506 -4.12232 -0.749661 0.223587 -0.427209
41 1 14.1834 11.5242 -0.808576 -1.35835 -5.95404 3.83557 0.23876 -4.05399 -0.257381 0.558959 -0.306699
131 1 14.189 8.78043 2.1716 -1.59748 2.05417 3.03081 0.387444 -3.99997 0.862095 -0.387097 -0.54201
38 1 10.1092 10.2499 0.688734 0.647054 3.02786 -2.05404 0.492461 -4.06433 -0.794179 -0.999172 0.142635
39 1 11.3428 8.78317 -0.855073 2.80774 -0.622395 -1.00191 0.223269 -4.07781 0.688553 -0.0137791 0.131703
40 1 12.8549 10.1114 0.706139 -1.75728 -0.634733 -0.267602 0.237105 -4.08305 -0.297798 -0.0175188 -0.621538
139 1 11.4119 8.69776 2.1381 -0.425376 2.4171 -0.0430739 0.107662 -4.0887 0.0281099 0.618451 -0.649518
149 1 11.4267 11.5446 2.13898 -0.904464 -0.906018 0.248794 0.173541 -4.06534 0.292958 0.34937 -0.402572
49 1 11.351 11.4979 -0.826583 -3.94296 -1.72452 -3.57845 0.14295 -4.03203 0.240884 0.526868 -0.372033
42 1 1.60077 12.9976 0.490237 -0.841826 -0.173751 0.753914 0.419481 -4.0682 -0.539057 0.251774 0.0403692
44 1 4.30049 12.9516 0.475082 -1.17519 0.372824 -0.13007 0.106996 -4.1379 0.32872 -0.300195 0.2982
52 1 1.58776 15.7356 0.719296 -0.585983 1.26946 1.71295 0.662247 -3.98224 -0.974303 -0.461067 -1.18993
54 1 4.38463 15.6552 0.570401 0.269637 0.959657 1.9614 0.26689 -4.07817 -0.736086 0.46027 -0.443172
153 1 2.9946 14.2978 2.06476 -3.03426 -0.361765 3.65674 0.16452 -4.00031 0.0100637 -0.0507055 0.551175
46 1 7.13899 12.8477 0.545855 -0.042375 -0.703018 -2.37022 0.222236 -4.0268 -0.398765 0.416326 0.0325189
56 1 7.08452 15.7726 0.49147 0.19616 0.505449 -1.21975 0.245416 -4.07745 0.165335 -0.439427 -0.0956292
155 1 5.76502 14.3443 2.00797 -0.699273 2.50818 -2.71856 0.102832 -4.07956 -0.0244343 0.0380229 0.086699
157 1 8.53251 14.4644 2.09187 1.77519 1.9958 -4.01974 4.98747 -4.08926 0.130107 -0.292373 -0.132862
57 1 8.49816 14.3386 -0.766888 5.27468 2.46447 0.151665 0.482706 -3.98325 0.136633 0.26941 -0.898533
51 1 14.0057 14.3518 -0.906783 5.08997 3.62125 -2.07853 4.69205 -3.98885 1.54736 -0.280279 0.0202895
151 1 14.2009 14.4155 2.07314 -4.71089 2.01634 -0.85659 0.120157 -3.99925 -0.0612628 -0.621094 0.0718031
48 1 9.93985 13.0563 0.596432 2.86016 2.34417 0.701272 0.268444 -4.06753 0.292867 -0.791204 -0.097467
50 1 12.7181 12.9904 0.593736 0.559624 -1.36974 -0.820506 0.175051 -4.07158 0.204635 -0.473685 0.218171
58 1 9.99316 15.7186 0.57843 -3.3381 -1.51398 5.38263 0.167913 -4.07589 -0.0934594 0.319996 0.0215408
60 1 12.7967 15.7437 0.584052 1.53771 1.90327 -4.70531 0.110866 -4.06721 -0.275417 0.229914 0.630314
159 1 11.3491 14.3264 2.1231 -0.265735 -1.65506 -3.98071 0.150669 -4.06769 0.589178 -0.058296 -0.0146925
62 1 1.43944 18.5161 0.619484 0.272627 0.831543 -0.200207 0.115463 -4.02742 0.470551 0.00990628 -0.240512
64 1 4.38586 18.6552 0.623639 1.24428 1.0664 2.86252 5.07081 -4.01974 -0.528811 -0.742098 0.0158294
163 1 2.94245 17.1558 1.96025 0.341627 2.40032 0.506019 0.382139 -4.02973 0.413978 0.270461 0.289814
171 1 0.141802 19.9783 2.16017 -0.0590841 -1.37942 4.27312 0.166711 -4.12005 -0.506913 0.0661971 -0.4344
173 1 2.89555 19.9823 2.04287 0.785649 -1.23368 2.3689 0.144329 -4.1075 -0.32639 -0.533031 0.599102
66 1 7.24355 18.6165 0.622866 2.75597 -4.35103 0.905848 0.363046 -4.1541 -0.492437 -0.215873 0.187916
67 1 8.57677 17.1461 -0.883188 -4.30079 -3.56988 1.31798 0.0495351 -4.14174 -0.241324 0.0144602 0.180618
165 1 5.78304 17.093 1.99899 1.97311 1.99329 -0.167527 0.236573 -4.04259 -0.225383 0.477085 0.372103
167 1 8.56005 17.078 1.94615 1.63712 1.01306 -0.622391 4.58062 -4.07912 0.358805 -0.286189 0.651787
175 1 5.70632 20.007 2.06857 -3.42076 -2.85137 2.01629 0.132149 -4.0521 0.519165 0.353425 -0.466056
177 1 8.58858 20.043 2.27211 -1.05917 0.80188 -0.731301 0.945623 -3.99677 -0.261372 -0.833795 -0.870669
75 1 5.71713 19.9361 -0.89785 -4.53949 -0.9021 2.29786 0.126867 -4.064 -0.346704 -0.106876 -0.751344
65 1 5.67248 17.193 -0.8601 -1.31158 -3.63153 -0.620776 0.327499 -4.10325 0.307981 -0.185925 -0.283404
161 1 14.1852 17.2046 2.16535 -8.06951 -0.86164 0.0732044 0.209667 -4.12487 0.152351 -0.266935 -0.711553
68 1 9.83757 18.5862 0.648963 1.01621 0.95189 3.77626 0.501515 -4.10884 0.84374 0.433911 0.0950213
70 1 12.7582 18.5098 0.608898 -2.75978 -0.241021 0.901339 0.154811 -3.99957 0.328404 0.226023 -0.361398
169 1 11.4357 17.1907 2.05812 -0.050047 0.778513 1.36961 0.108687 -4.05972 -0.381978 0.146834 0.382988
179 1 11.4548 19.9395 2.1427 0.478562 4.61523 -0.247094 0.244439 -4.08693 -0.336762 0.103436 -0.198037
69 1 11.3235 17.1806 -0.802497 2.51938 -0.439877 2.89062 0.208296 -4.07099 0.30724 -0.0976923 -0.335669
71 1 14.189 20.001 -0.795898 -3.02828 1.71166 0.793185 0.295065 -3.94977 0.060877 -0.566556 -0.424357
61 1 14.2026 17.0274 -0.835805 -2.79754 0.110739 5.17862 0.288213 -4.0169 -0.119213 0.0860412 -0.193571
72 1 1.54936 21.3951 0.527053 2.3338 -3.4761 -2.56089 0.171876 -4.12907 -0.0351897 0.193844 -0.197648
74 1 4.24289 21.3195 0.65528 -0.775897 2.76848 -0.309503 0.354453 -4.16628 0.444614 0.0831828 -0.149931
82 1 1.5098 24.075 0.455368 -0.197856 1.54937 -4.05427 0.285405 -4.11007 -0.0350691 0.720295 0.137567
84 1 4.24694 24.1216 0.600201 1.75243 2.83472 -4.12876 0.387348 -4.01249 0.648023 0.790622 -0.0764707
181 1 0.128659 22.763 2.00725 -3.03311 -1.67311 -0.629939 0.046182 -4.07991 -0.0204472 -0.256667 -0.281053
183 1 2.89382 22.7594 1.96535 0.572942 -1.11899 -0.365379 0.151821 -4.1099 -0.334008 0.508676 0.606434
76 1 7.14056 21.2635 0.57432 -0.691281 0.193514 1.05787 0.363402 -3.98504 0.0317748 0.767209 0.169369
86 1 7.25436 24.2668 0.576912 -2.43118 3.29649 -1.15762 0.397299 -3.95583 -0.13905 -0.345442 -0.169281
185 1 5.72509 22.8979 1.97035 3.67767 -2.14848 -3.35625 0.463917 -4.07889 0.281756 -0.636165 0.00737599
187 1 8.47118 22.692 2.1394 -0.732136 -0.532565 -1.73565 0.569351 -4.0728 0.34111 0.174647 -0.383986
78 1 9.92402 21.3232 0.51957 -2.14879 -1.2859 1.20999 0.213818 -4.08319 -0.0141697 0.334934 0.83397
80 1 12.7264 21.3466 0.593513 -2.02506 0.894117 1.33119 0.0634093 -4.02928 0.710648 0.000213647 -0.199371
88 1 9.99398 24.1702 0.617122 -1.34963 2.3224 -3.76156 0.195336 -4.09746 -0.171271 0.35706 -0.168701
90 1 12.8226 24.1983 0.486937 -3.32555 -1.34099 0.789537 0.176544 -4.04248 -0.521351 0.108807 0.33735
189 1 11.404 22.6532 1.98942 1.1462 2.87937 3.03823 0.283322 -3.99075 0.0571925 0.468678 -0.0919879
92 1 1.49183 27.0716 0.563785 -1.55268 0.823337 -0.21304 0.0683016 -4.05171 0.0341709 -0.381218 0.169338
93 1 2.95679 25.6072 -0.887841 -2.98218 -1.24306 2.03838 0.163361 -4.08205 0.148199 0.05566 -0.160338
94 1 4.31233 27.0701 0.719526 -2.42482 -0.468398 -1.32983 0.643955 -4.00063 -0.33816 0.288616 -0.699933
193 1 2.87926 25.4829 1.97994 -1.0862 0.475835 1.41936 0.403832 -4.01326 -0.187272 0.545349 0.233043
5 1 5.72241 28.2956 -0.827753 2.69086 -0.906142 0.0342517 0.561024 -4.05447 -0.0999489 0.508194 -0.284677
107 1 8.62684 28.3911 2.0856 1.62718 -2.83475 -3.52836 0.290929 -4.10928 -0.291985 1.27919 -0.654782
96 1 7.19496 27.0059 0.56597 3.8854 -2.09663 -3.2721 0.0370973 -4.10085 -0.246009 -0.281997 0.237027
195 1 5.7699 25.6353 1.99475 -1.7019 -1.17403 1.74296 0.125453 -4.04754 -0.00825455 -0.0469109 0.607616
197 1 8.65402 25.6862 2.04679 -0.592902 -0.620959 0.00800132 0.315457 -4.1006 -0.612068 -0.512053 0.411904
7 1 8.51249 28.4072 -0.806967 0.305773 -1.36188 3.04787 0.324741 -4.0401 -0.148159 0.167723 -0.525805
191 1 14.1954 25.5315 2.00384 -0.0885336 -4.4938 -0.48509 0.206659 -3.98459 0.210512 0.186287 -0.416999
98 1 9.85719 27.0277 0.522359 2.60699 4.64685 0.62246 0.389313 -4.14209 0.934379 -0.136633 -0.0471339
100 1 12.8111 27.1397 0.576447 0.688756 2.41483 -3.36628 0.109647 -4.05747 0.357524 -0.624147 -0.228519
199 1 11.3947 25.7747 2.04834 -1.77748 -0.753815 0.440887 0.578443 -4.01227 0.589267 -0.654833 0.0658098
99 1 11.3966 25.6653 -0.845769 -3.11862 -0.640777 0.494149 0.136693 -4.07732 -0.0529728 -0.100279 0.24361
102 1 1.43258 1.58866 3.55417 7.38627 -3.29026 1.48818 0.292569 -4.08937 0.454654 0.270083 0.275788
104 1 4.40471 1.70471 3.46575 -2.62904 -0.431866 -2.50035 0.225319 -4.07573 -0.832725 -0.0579301 -0.375352
202 1 1.64591 1.56967 6.37172 2.02744 3.5456 -1.59179 0.591793 -4.06336 -0.825911 0.752573 0.309174
203 1 2.94499 0.259696 4.96441 -1.3304 -3.48688 0.0854903 0.127053 -4.10358 0.0702094 0.221531 -0.075685
204 1 4.18458 1.68524 6.45128 -0.935437 1.48785 2.63114 4.35469 -4.0625 1.18989 -0.619601 0.0680072
213 1 2.88677 3.08084 4.93084 -2.28947 -0.845795 -1.07431 0.34248 -4.10565 -0.103164 -0.194664 0.351416
106 1 7.15632 1.63052 3.45098 0.736671 -1.16949 0.0239501 0.231031 -4.13291 0.479812 0.67916 0.661025
205 1 5.64874 0.299036 4.83268 2.33469 0.995414 0.291621 0.549604 -3.99367 0.700415 -0.313072 1.23753
206 1 7.2548 1.68985 6.41354 -1.46106 -1.55409 1.7364 0.349044 -4.02825 -0.283279 -0.545868 -0.168923
207 1 8.58474 0.236208 5.0387 1.31666 3.04051 1.49325 0.14388 -4.04496 0.290526 -0.0933575 -0.750884
215 1 5.78167 2.95842 5.09001 -1.49422 -2.50707 3.51511 0.506354 -4.04719 -0.471165 0.162434 -0.224771
217 1 8.60442 3.0921 4.9871 -1.80041 2.92479 -5.24384 0.120845 -4.08383 -0.141676 -0.214399 -0.0826019
201 1 14.2143 0.277593 5.04226 -0.76465 1.66164 -3.30675 0.311284 -4.09485 -0.42994 -0.111428 0.0625826
211 1 14.1953 3.09372 5.09501 0.131749 -3.47244 0.658656 0.255584 -4.06376 -0.115005 -0.47298 -0.104257
108 1 9.98023 1.81548 3.5753 1.78008 -0.0382443 0.481447 5.37238 -3.99701 0.407898 -0.990814 -0.266095
110 1 12.7567 1.63776 3.4872 0.143622 0.261967 0.471904 0.157421 -3.98336 0.324204 0.282764 0.572902
208 1 9.93587 1.5992 6.50056 -2.11946 3.54369 -4.60115 0.124227 -4.16902 0.693416 0.543013 -0.421421
210 1 12.7168 1.62492 6.52824 1.93469 -2.84729 3.21644 0.352163 -4.0364 -0.269367 0.148318 -0.437054
219 1 11.4042 3.08595 5.01135 2.96876 -3.6 -0.306264 0.0651833 -4.02967 0.0701426 -0.231573 0.0824359
112 1 1.47335 4.44722 3.63591 -2.08488 5.53109 1.88305 0.229335 -4.02098 -0.0684672 0.693145 -0.0980757
114 1 4.45714 4.53943 3.64804 0.408107 -1.46821 1.68028 0.431045 -4.09074 -0.228131 -0.766852 -0.515233
122 1 1.5387 7.19477 3.60384 -2.178 2.10286 -1.52883 0.26437 -3.98341 -0.363659 0.287601 -0.258422
124 1 4.30599 7.3213 3.5817 -1.70609 -0.894295 0.386355 0.156754 -3.98801 -0.0477047 0.548543 0.281722
212 1 1.5107 4.56417 6.50659 1.71349 1.1107 -0.37813 0.378688 -4.0946 -0.0576618 -0.667618 0.166723
214 1 4.35594 4.34938 6.52427 -3.60792 0.888428 1.10906 4.74218 -4.08156 0.0251911 0.661462 -0.619351
222 1 1.54559 7.23945 6.48565 2.60978 -1.28947 -2.65909 0.155699 -4.10578 -0.525856 -0.263806 0.182315
223 1 3.00176 5.86832 5.04988 -2.9209 -3.41332 -1.19244 0.119567 -4.10191 0.0847101 0.118684 0.175235
224 1 4.45542 7.31972 6.52068 2.28078 -2.16034 3.83898 0.292498 -4.04508 -0.992857 0.574563 -0.620294
116 1 7.08446 4.43511 3.58212 -0.717838 -0.661302 1.69127 5.06151 -4.09561 0.310857 0.653231 -0.263293
126 1 7.33953 7.39572 3.56159 1.37971 -3.46356 0.697126 0.486406 -3.98728 -0.616724 -0.243588 -0.325886
216 1 7.15048 4.45322 6.3731 0.663868 1.20315 1.59813 0.325202 -4.1306 -0.0269853 0.786646 0.536053
225 1 5.7941 6.05956 4.96687 0.299468 -1.75276 -1.18853 0.615782 -4.04362 -0.14831 -0.457699 0.0277179
226 1 7.22143 7.27669 6.48836 -1.92098 2.73055 -2.00716 0.109941 -4.13266 -0.010191 0.274151 -0.13088
227 1 8.61587 5.8789 4.97328 -0.532809 -0.371899 0.126652 0.129283 -4.04358 0.0644403 -0.154113 0.048202
221 1 14.1524 5.86373 5.06359 0.796103 -1.93786 -0.0692733 0.124736 -4.07108 -0.133238 0.268269 -0.728048
118 1 10.0291 4.4796 3.54603 -2.00022 0.251406 -1.34662 0.099613 -4.1248 -0.344607 -0.00947218 -0.458063
120 1 12.7727 4.51546 3.48377 -2.93314 -0.0391201 0.674702 0.108901 -4.10338 -0.0322225 0.0819566 0.759537
128 1 10.0124 7.32217 3.49859 -2.7644 2.28321 3.1472 0.123895 -4.10613 -0.798625 0.146805 0.126544
130 1 12.7448 7.26336 3.50435 -1.8326 -3.86476 -3.53257 0.157735 -4.10962 0.807242 -0.282866 0.223914
218 1 9.92391 4.44006 6.48268 2.54663 2.02038 1.45237 0.087664 -4.1172 0.498748 0.129862 -0.192587
220 1 12.7806 4.44772 6.47469 -0.879614 -1.25736 1.20844 0.0624875 -3.99789 0.155057 -0.266413 0.0943436
228 1 9.92162 7.27115 6.56532 0.0778168 -0.255412 1.79302 0.253775 -4.09201 0.106103 0.0313278 -0.126417
229 1 11.2652 5.91426 5.0439 0.58398 1.74186 -1.1864 0.298093 -4.09148 1.16287 0.0712036 0.227579
230 1 12.8446 7.35538 6.40179 2.31232 0.678649 1.21522 0.272436 -4.05957 -0.36252 -0.691725 0.136356
132 1 1.49806 10.2454 3.46563 0.926583 1.77752 2.20689 0.199566 -4.03544 0.142796 -0.450721 0.175527
134 1 4.33421 10.2257 3.59918 -1.95039 -2.01599 -1.69927 0.273417 -4.02992 0.0983395 -0.515968 -0.0858527
232 1 1.56015 10.1641 6.50168 2.12226 0.0705619 -0.681687 0.206722 -4.10441 -0.152526 -0.294059 -0.277578
233 1 2.86938 8.7146 5.06611 -0.683116 0.194601 5.31636 0.1439 -4.0384 0.286628 0.146544 -0.755553
234 1 4.30212 10.2221 6.48067 -0.621179 0.157015 -0.123602 5.22113 -4.08313 0.605015 -0.366408 -0.108721
241 1 0.149986 11.5192 4.96826 -2.41095 0.904273 -0.0212207 0.0910981 -4.07373 -0.152218 0.15901 0.0396774
243 1 2.87755 11.525 4.91683 -0.234391 0.744033 0.670144 0.23768 -4.04451 -0.152604 -0.109841 0.404121
136 1 7.34978 10.1327 3.57713 0.629619 0.98562 1.20116 4.82271 -4.09499 -0.561084 0.162156 -0.261717
235 1 5.87066 8.81598 4.94018 0.465343 -1.43871 1.4062 0.372161 -4.07777 -0.371634 -0.401291 0.432074
236 1 7.13391 10.1574 6.50758 2.36863 -0.429749 -0.449581 0.25752 -4.12453 0.157665 0.411454 0.217292
237 1 8.63235 8.75913 5.15764 2.56455 0.935182 0.542097 0.352922 -4.12998 0.251613 -0.167817 -0.453907
245 1 5.87987 11.5851 5.00322 0.240801 -0.541356 -0.243051 0.422963 -4.06517 -0.199264 -0.064019 -0.13517
247 1 8.6244 11.498 5.10978 0.432483 -3.51449 2.45946 0.191716 -4.13185 -0.292789 0.858891 -0.306709
231 1 14.2058 8.74973 4.96725 -0.187028 1.52542 1.17023 0.0855637 -4.12343 0.685608 -0.0511812 0.210807
138 1 9.92992 10.142 3.51173 -1.64946 -2.47072 4.24093 5.05936 -4.1479 0.58789 -0.493768 0.327864
140 1 12.8378 10.2224 3.51971 -3.06779 0.590986 0.953237 0.189714 -4.1306 -0.621944 -0.546634 0.316798
238 1 10.0462 10.0877 6.50691 4.00462 1.03455 -0.403308 0.139346 -4.03515 0.171403 -0.00498957 0.545678
239 1 11.364 8.67474 4.97445 1.07823 -1.10089 5.00007 0.096943 -4.10496 0.261477 -0.0957572 0.052706
240 1 12.788 10.0949 6.33342 0.473313 1.12475 -2.36237 0.364351 -3.99699 0.443478 0.582555 1.0734
249 1 11.3994 11.5636 5.09925 0.00818624 4.09037 -1.73351 0.240767 -4.08682 -0.37993 -0.21896 -0.506548
142 1 1.52181 13.0509 3.62017 -1.28477 -4.17543 2.9049 0.343034 -4.12475 0.364682 -0.154062 -0.10334
144 1 4.29805 12.8216 3.45549 1.81958 -2.20134 0.0142737 4.73101 -4.06219 0.521278 0.599475 0.572586
152 1 1.51339 15.8576 3.59647 -0.669006 2.84052 -0.820189 5.14314 -4.1627 0.414961 -0.698732 -0.64023
154 1 4.25725 15.7179 3.512 2.46855 -1.35996 -1.82568 0.304485 -4.06155 0.877621 0.423709 -0.0327042
242 1 1.53992 12.9165 6.45039 0.280113 3.4737 -1.1283 0.116943 -4.14384 0.494018 -0.0293811 0.00669532
244 1 4.24982 12.7782 6.47677 2.14938 -0.0921022 -0.749942 5.1296 -4.08655 0.289375 0.332844 -0.528475
251 1 0.128475 14.4623 5.0659 2.68999 -0.1114 0.508103 0.221367 -4.06254 -0.422823 -0.292923 -0.0857759
252 1 1.63436 15.7834 6.36364 -3.12021 0.366244 0.726554 0.45498 -4.01567 0.0162222 -0.302939 0.336691
253 1 3.02926 14.3678 5.0409 0.643288 -2.70259 -2.00417 0.351093 -4.03016 -0.291316 0.0922558 -0.381581
254 1 4.32401 15.7314 6.56956 -3.29084 -1.84392 -1.68306 0.268993 -4.03209 -0.100995 0.173462 -0.147852
146 1 7.13468 12.9886 3.52623 1.04428 0.1527 -2.62964 0.131452 -3.9355 0.567796 -0.553727 -0.119058
156 1 7.1141 15.8395 3.5529 -5.45427 -4.00032 2.42238 0.288299 -4.05136 0.181239 -0.12928 0.00675283
246 1 7.17912 12.9922 6.52098 0.991656 -1.68864 -0.448699 0.135714 -4.0288 0.26142 -0.421327 0.233222
255 1 5.79332 14.3612 4.95881 0.949383 2.2935 -3.25327 0.175943 -4.10455 -0.801743 0.200509 0.675819
256 1 7.19239 15.8423 6.38507 -0.861153 0.781607 -0.146585 0.368973 -4.05915 0.347071 -0.574929 -0.100645
257 1 8.60857 14.4287 5.0572 -2.00567 3.54744 2.76289 0.0724426 -4.07305 -0.141845 -0.34053 -0.592705
148 1 10.0789 12.8625 3.62263 2.53119 -0.204599 1.59625 0.297092 -4.03246 -0.66427 0.655883 -0.293917
150 1 12.8144 12.9078 3.58909 0.842405 -1.04171 -0.584461 0.1554 -4.13215 0.167682 0.372705 -0.199789
158 1 10.0599 15.8093 3.60577 1.95172 -4.28031 -2.67566 0.250653 -4.04362 -0.00125719 -0.0521511 -0.11012
160 1 12.7974 15.8078 3.50729 2.05154 2.79304 -0.0709358 0.186255 -4.07909 -0.101777 -0.471472 0.794094
248 1 10.001 13.0598 6.52591 1.15591 3.93167 -3.97146 0.326174 -4.03883 0.0760535 -0.309896 -0.303156
250 1 12.9049 12.9601 6.42986 1.45982 -1.9964 -1.75047 0.254465 -4.09327 -0.387205 -0.197054 0.174678
258 1 10.0849 15.781 6.48825 3.15439 -2.57917 -3.22034 0.184484 -4.12076 -0.284963 -0.101915 0.256825
259 1 11.5154 14.2983 5.00168 2.36546 0.76793 -0.871017 0.266102 -4.0879 -0.311056 0.48257 0.341932
260 1 12.7221 15.7462 6.51568 1.07372 0.97037 -2.70378 0.526817 -4.01078 0.39004 -0.155315 0.245214
162 1 1.61205 18.4318 3.53886 0.103087 0.473685 0.329909 4.85571 -4.07464 0.0110719 0.587585 0.269307
164 1 4.41893 18.6151 3.42657 -0.211573 3.22505 -5.20284 0.337138 -4.05395 -0.544902 -1.02915 0.500294
262 1 1.64124 18.6991 6.46561 -1.57751 0.894061 -4.43727 0.342761 -4.10599 -0.53538 -0.217904 -0.0281909
263 1 3.02324 17.1738 4.98855 -2.37006 -0.133771 0.32695 0.258318 -4.09576 -0.00825561 0.290378 0.616477
264 1 4.25569 18.5351 6.60779 2.99979 1.41468 -0.253245 0.474292 -4.05754 0.840475 0.407428 -0.598073
271 1 0.239882 19.931 4.89831 -2.9132 -1.24747 -1.34561 0.584803 -4.06384 -0.3047 0.34798 0.26756
273 1 3.06119 20.0027 5.00438 0.40391 -0.0741893 3.19324 0.355162 -4.09328 -0.209516 0.179378 -0.284042
166 1 7.16241 18.5363 3.52085 0.698547 0.150344 -2.49931 0.169765 -4.14954 0.0808421 -0.116834 -0.00243646
265 1 5.71847 17.1429 5.12171 -1.6126 -0.82668 -3.54668 0.416472 -4.0913 -0.690894 0.478994 -0.490608
266 1 7.25348 18.553 6.38629 1.95445 3.37989 -0.145865 0.536142 -4.01291 -0.795616 0.238493 -0.0118841
267 1 8.63962 17.1234 4.93089 1.62128 1.24999 -1.44411 0.257961 -4.04413 -0.00734405 0.371427 0.702674
275 1 5.66392 19.9514 5.01055 0.0670137 -1.38317 -3.87798 0.29774 -4.08448 0.342428 -0.227846 0.55981
277 1 8.52362 20.0544 5.00004 0.898333 -0.0775842 -0.479706 0.251434 -4.11699 0.418003 0.0676438 0.421695
261 1 14.1769 17.1487 5.07948 3.22524 -0.724689 1.23685 0.351287 -4.1152 -0.0517943 0.237293 0.135832
168 1 9.9888 18.5753 3.56285 -3.61858 0.233632 -1.83299 0.198166 -4.05491 -0.498434 -0.365271 -0.00795634
170 1 12.8038 18.6463 3.66675 0.900172 4.64776 -2.52583 0.320074 -4.08711 -0.30923 -0.470178 -0.480595
268 1 9.90461 18.5053 6.58281 4.57801 -0.241298 0.328247 4.46196 -4.03653 0.629912 0.571013 -0.426128
269 1 11.4148 17.1891 5.18329 1.22914 3.37173 -1.05524 0.377801 -4.05153 0.534071 0.808088 -1.29835
270 1 12.909 18.7314 6.47076 -1.75346 -1.91228 -0.862528 0.527296 -4.06003 -0.752986 -0.45034 0.497128
279 1 11.3598 20.0486 4.9786 2.0114 -4.45816 0.994583 0.25752 -4.03697 -0.523743 0.00697064 0.453299
172 1 1.47279 21.4257 3.56589 2.33301 -0.225112 2.95214 0.269171 -4.08556 0.512962 -0.00107184 -0.34964
174 1 4.32705 21.4567 3.41574 -1.27528 -0.710527 -1.51037 0.265497 -4.08782 0.176205 -0.343697 0.401703
182 1 1.5749 24.1646 3.51926 -0.784188 -3.79054 -2.16947 0.0645151 -4.12815 -0.401436 0.21328 0.0630273
184 1 4.3073 24.238 3.47745 -0.587332 0.565944 -1.32797 0.143066 -4.07274 0.410098 -0.275232 -0.319107
272 1 1.50093 21.4332 6.392 -1.3891 0.701157 2.48604 0.360442 -4.12307 0.658842 -0.114827 0.850737
274 1 4.4257 21.4489 6.55036 2.59471 -0.91757 -0.537123 0.258236 -4.02277 -0.021317 -0.141723 -0.593192
281 1 0.183488 22.7914 5.06292 -2.74019 0.616667 0.622568 0.149801 -4.00347 -0.646705 0.648098 -0.56292
282 1 1.52472 24.1909 6.55812 -1.23117 0.365724 -0.651941 0.158445 -4.09141 1.00538 0.141443 -0.796329
283 1 2.92311 22.8102 5.08033 1.18139 2.06881 4.32688 0.169244 -4.03265 0.987346 0.243771 -0.0323212
284 1 4.42474 24.2671 6.52637 -2.88227 1.45219 3.65201 0.161355 -4.0232 -0.249255 -0.409688 -0.389424
176 1 7.06694 21.3141 3.58616 -3.95137 -1.5893 -1.01736 0.38835 -4.06011 0.28385 -0.092523 -0.543361
186 1 7.17879 24.1447 3.42886 2.78581 2.06017 1.88695 0.187414 -3.99302 -0.216929 0.838904 0.196111
276 1 7.10716 21.4372 6.53965 2.60993 -1.18025 -2.38511 0.238117 -4.05136 0.221 0.0846242 -0.171466
285 1 5.85589 22.7635 4.87842 1.31531 1.02106 -0.50399 0.528986 -4.01732 -0.859938 1.1168 0.862385
286 1 7.16944 24.2408 6.52046 1.08031 -1.08147 0.839848 0.272519 -4.04284 -0.183301 -0.246537 -0.685541
287 1 8.6565 22.7436 4.92332 2.42 3.87829 -0.705154 0.329725 -4.20315 -0.591943 0.240772 0.827337
178 1 9.99102 21.4199 3.48207 -1.13098 -1.50552 3.15931 0.237103 -4.07692 0.856498 -0.263327 -0.0140278
180 1 12.8404 21.4228 3.61143 -0.471497 0.0061306 0.269058 0.286274 -4.19234 0.110986 0.199635 -0.0700186
188 1 10.0407 24.0693 3.37869 -1.30348 -2.27273 0.479064 0.801956 -3.97316 -0.116816 1.06421 0.315899
190 1 12.925 24.1389 3.4921 -1.55903 -2.12372 1.13416 0.399074 -4.00133 -0.567369 0.323899 0.430843
278 1 9.94955 21.4304 6.58949 1.38589 -0.978514 1.96516 0.3152 -3.99584 -0.0397552 -0.471248 -0.898467
280 1 12.8739 21.3633 6.40572 1.61778 1.13426 1.57654 0.287089 -4.14476 -0.240456 0.0954944 0.406406
288 1 10.0194 24.1956 6.57051 2.68269 2.22443 1.78439 0.37569 -4.0148 -0.636233 -0.0878899 -0.00452645
289 1 11.3072 22.8471 5.00527 -3.96248 4.07387 -0.259648 0.485869 -4.10439 0.588024 -0.0654776 0.229776
290 1 12.8777 24.1232 6.46035 1.06046 -1.98762 3.24564 0.235498 -4.1031 -0.614468 0.256279 0.212362
192 1 1.54582 26.9795 3.55127 0.832332 -0.820942 0.130328 0.144665 -4.15642 0.0236393 0.0974118 0.0589522
194 1 4.33343 27.1078 3.49539 -1.61671 -3.20912 1.28134 0.248954 -4.06964 -0.34641 -0.687626 -0.447998
291 1 0.123486 25.6243 5.11978 -1.91934 -0.395923 -0.219087 0.368055 -4.00651 -0.202353 -0.115926 -0.638168
292 1 1.58125 27.1181 6.37791 0.521729 -0.104332 -0.21211 0.25916 -4.13626 -0.171249 -0.585437 0.109038
293 1 3.0799 25.6086 4.97802 2.80973 1.17343 -0.298043 0.379031 -4.00623 -0.954345 -0.0581291 0.166295
294 1 4.2495 27.1204 6.45309 -1.17778 2.9951 1.58236 0.250264 -4.05582 0.722725 -0.198051 -0.119823
196 1 7.3038 27.0489 3.63345 3.37805 -2.98627 4.17109 0.567395 -4.01951 -0.856718 0.00202496 -0.825374
295 1 5.73558 25.636 4.95769 2.43808 0.681994 -1.51506 0.153943 -4.1013 0.312371 -0.0108203 0.222166
296 1 7.17419 27.0665 6.368 0.309675 6.50899 -1.89168 0.240179 -3.97921 -0.0342818 0.533525 0.212869
297 1 8.56397 25.5256 5.00298 -0.134748 1.31643 -3.31811 0.341983 -4.10969 1.12444 0.18939 -0.0014931
209 1 11.3537 28.3011 5.06827 -0.393176 -1.47754 0.78913 5.62698 -3.97818 0.566692 0.645284 -0.934571
198 1 9.95313 27.0869 3.43499 0.689763 -0.698924 -1.31982 0.29464 -3.91592 0.140914 -0.222463 1.29504
200 1 13.0099 27.0067 3.48751 5.30296 -0.270392 0.651806 5.26924 -4.00132 -0.727044 0.239841 0.45305
298 1 9.9521 27.1594 6.52896 1.28797 -2.74568 -4.13594 0.324773 -4.06078 -0.299378 -0.988691 0.523673
299 1 11.357 25.6421 5.04446 0.613569 6.18239 1.53807 5.90714 -4.01732 0.621269 -0.024189 -0.104174
300 1 12.9347 27.0657 6.52141 -0.577292 -1.28953 -3.83829 0.295529 -4.07737 -1.0179 -0.308556 0.511246
301 1 0.190771 0.330155 7.82969 0.5675 -0.168496 -2.46061 4.72492 -4.12304 0.326554 -0.319564 0.272829
302 1 1.52998 1.64637 9.55932 -1.42736 -3.15682 0.972455 0.280226 -4.07737 0.152018 -0.408903 -0.0840801
303 1 2.87995 0.257353 7.97973 0.341516 -0.0404191 -2.60214 0.18093 -4.10514 0.0659929 -0.365089 0.0816732
304 1 4.29008 1.6221 9.40457 -4.04083 -0.468429 4.02966 0.150302 -4.04004 0.165279 0.598489 0.374047
311 1 0.149724 2.85167 7.97164 -1.74976 0.28104 0.763369 5.00663 -4.02787 0.00781975 1.65325 -0.429488
313 1 2.89377 2.99568 7.86112 0.148637 -0.416692 -0.495992 0.335646 -4.00313 0.0252103 0.264808 1.08243
403 1 2.9679 0.297361 10.9556 0.394335 0.406084 2.23505 0.173707 -4.08447 0.245911 -0.454371 -0.529245
411 1 0.156785 3.04543 10.9114 0.660313 -0.658618 -1.38298 0.136153 -4.10734 -0.504625 0.628871 -0.165296
413 1 2.87494 3.0559 11.0189 -3.05234 -3.9865 -0.430171 0.324354 -4.12623 0.164499 0.162896 -0.707682
305 1 5.63949 0.272746 7.97553 -2.6762 0.601797 -1.53878 0.27102 -3.99886 1.26748 0.149122 -0.546041
306 1 7.16827 1.7968 9.4332 -0.497955 1.38302 -0.554626 0.423634 -3.95175 -0.615902 -0.96354 0.673015
307 1 8.54451 0.339894 8.0188 2.06573 -1.47317 -0.377265 0.31315 -4.0958 -0.159302 -0.689076 0.0112654
315 1 5.88369 2.98404 7.89399 0.746495 3.22544 0.384377 0.620305 -4.04942 -0.846605 0.27624 0.0179516