ITEM: TIMESTEP
83250
ITEM: NUMBER OF ATOMS
2000
ITEM: BOX BOUNDS pp pp pp
1.0838953229856951e-01 1.4221610467701321e+01
2.1677906459713903e-01 2.8443220935402643e+01
-1.9162931565502803e+00 5.9236293156549841e+01
ITEM: ATOMS id type x y z vx vy vz c_csym c_peratom fx fy fz
2 1 1.62332 1.66863 -0.379666 -0.282889 -3.25185 -0.636516 0.278348 -4.04139 -0.185364 0.160948 -0.455064
4 1 4.35789 1.61575 -0.453901 0.990702 -5.33602 3.45801 0.23387 -4.0634 -0.0897393 -0.0582869 0.728266
11 1 0.115605 3.14255 -1.8669 0.617832 -0.194419 3.50607 0.222832 -3.9874 -0.144517 -0.415177 -0.387805
101 1 0.126621 0.284403 1.11344 -1.57173 1.46596 2.1275 0.152386 -4.06233 -0.309202 -0.113092 -0.374233
103 1 2.85007 0.270771 1.17476 0.287695 0.367304 -1.8153 0.242412 -3.94152 0.304445 0.124806 0.326784
111 1 0.168447 3.08626 1.14066 -2.2925 0.592843 0.179022 0.132506 -4.05991 0.12967 0.0653327 -0.156483
113 1 2.87763 3.13123 1.19775 -1.71434 2.42111 -1.1208 0.334139 -4.01233 -0.444419 -0.0192053 0.147833
13 1 2.94284 3.10367 -1.89673 -0.0706192 -1.95523 0.774801 0.0736347 -3.96003 -0.17186 -0.0296523 0.0788226
6 1 7.17995 1.58532 -0.386618 -1.53139 -1.81767 -2.43971 0.229236 -4.02998 -0.111803 0.582289 0.194201
17 1 8.63608 3.25517 -1.8451 -1.24355 -0.0988133 -0.860341 5.08754 -4.015 -0.44767 -0.936227 -0.0367049
105 1 5.90739 0.22905 1.14216 0.812795 -1.48127 -4.16198 0.294926 -4.02605 -0.70823 -0.0397071 -0.0850331
115 1 5.79048 3.13764 1.12699 -0.932742 0.818202 0.0439582 0.182364 -3.99769 -0.303147 -0.252825 0.0711408
117 1 8.60233 3.08029 1.20965 0.475293 0.415756 -1.302 0.167205 -3.99728 -0.177924 0.0483712 -0.839791
15 1 5.86915 3.09703 -1.85754 -1.1078 -3.23994 -0.243916 0.295519 -3.94376 -0.367947 0.0109734 -0.489035
8 1 9.98472 1.71462 -0.505209 1.02028 2.64764 -1.65962 0.405709 -4.00078 -0.477092 -0.0644885 0.785578
9 1 11.3244 0.287262 -1.81306 -0.628437 1.37052 0.162777 0.405078 -3.9976 0.724267 0.135975 -0.375244
10 1 12.8557 1.68831 -0.453356 -0.261261 2.58464 0.684826 0.138047 -3.97685 -0.277823 0.319521 -0.00396892
109 1 11.3921 0.306018 1.1114 4.17545 -4.26001 3.01885 0.169709 -4.01078 -0.163931 -0.599292 -0.12027
119 1 11.4562 3.11085 1.05578 -0.877516 0.612354 1.13148 0.155954 -4.05067 -0.0875418 -0.154264 -0.0803159
12 1 1.52356 4.6359 -0.48477 1.18436 1.40208 1.05812 0.580209 -3.9943 0.134626 -0.650292 0.019505
14 1 4.34915 4.42365 -0.284073 -0.761965 1.11821 -1.53086 0.275039 -4.05109 -0.107288 -0.0528971 -0.466823
22 1 1.54026 7.32431 -0.456725 0.529166 1.27637 -0.648244 5.65961 -3.97389 0.101908 -0.223309 0.595435
23 1 3.01689 5.92797 -1.88799 4.21453 0.286138 -0.65637 0.224347 -3.97569 -0.430674 -0.0656858 -0.412476
24 1 4.35552 7.36387 -0.384818 0.718611 1.41969 0.425215 0.108976 -3.98449 -0.199404 0.11875 0.267345
121 1 0.132435 5.82793 1.13353 -2.35864 3.10392 -0.471262 0.1888 -3.98278 0.384335 0.127004 -0.148483
123 1 3.01618 5.86763 1.2311 1.00139 1.8653 -1.24788 0.258474 -4.05011 -0.29881 -0.284129 -0.177813
16 1 7.14135 4.5226 -0.305787 0.603539 0.154603 0.133915 0.158023 -4.01005 0.352228 -0.308309 -0.0198295
25 1 5.70759 5.92495 -1.79547 -0.827089 1.1553 2.35682 0.32876 -4.07528 -0.0117013 -0.623901 -0.491413
26 1 7.1412 7.16975 -0.435578 -0.0337704 2.62343 0.778117 5.08124 -3.90881 -0.111921 1.13022 0.497334
125 1 5.74127 5.95799 1.17791 -0.136011 -2.75282 -0.154075 0.138512 -4.13186 -0.204516 0.215443 0.51245
127 1 8.57446 5.88387 1.03918 -1.51658 -3.67076 0.00771245 0.37827 -4.02276 0.307157 0.067731 0.715207
18 1 10.0587 4.47472 -0.383308 2.01504 1.15568 0.108705 0.214784 -4.01105 0.219033 0.311879 0.00544174
20 1 12.7939 4.54238 -0.417774 -0.022531 3.00342 -1.17168 0.0617511 -4.06491 0.0073653 0.121362 0.443627
28 1 10.1169 7.35391 -0.291911 1.08986 -1.21663 1.80841 0.409619 -3.9849 -0.235366 -0.0469096 0.24155
29 1 11.4127 5.98723 -1.898 1.3822 1.47477 -0.555896 0.0539753 -4.05572 -0.389468 -0.226234 -0.332241
30 1 12.8531 7.28188 -0.321014 0.362699 -0.519128 0.486825 0.136731 -4.06615 -0.435438 0.245819 0.187869
129 1 11.3642 5.90889 1.18523 -0.995542 1.01394 2.2528 0.110708 -4.05898 0.0261042 -0.0509335 -0.419122
32 1 1.48279 10.1923 -0.454143 2.66336 -1.18469 0.933482 0.231455 -4.09838 0.148457 -0.477353 0.044523
34 1 4.32744 10.195 -0.453202 -3.42019 -1.92301 1.41173 0.193506 -4.02094 0.0706937 -0.173273 0.353972
43 1 2.92107 11.628 -1.89328 2.17426 0.782241 3.50485 0.118361 -4.0654 0.00923636 -0.433273 -0.146793
133 1 2.87707 8.77788 1.16778 -1.44944 0.975575 0.710255 0.09151 -3.98325 0.577702 -0.18931 0.368836
141 1 0.146359 11.6297 1.0504 -2.20193 -7.04944 -1.51669 0.320258 -4.07246 -0.133984 0.377167 0.123367
143 1 2.92416 11.521 1.14355 -0.572232 1.1909 1.77002 0.164072 -4.08002 -0.0248745 0.00468514 -0.255334
36 1 7.17897 10.1662 -0.33628 0.10168 3.47717 0.174941 0.167813 -3.93958 -0.163532 0.131367 0.138581
47 1 8.63625 11.4798 -1.81027 -1.46078 2.66256 0.234251 0.287561 -4.0212 -0.209197 0.226479 -0.45426
135 1 5.71447 8.72482 1.2461 -0.880733 0.590278 -0.109653 5.60019 -4.00464 0.196085 -0.0364546 -0.542227
137 1 8.61908 8.74613 1.07702 -4.19951 1.4167 -2.48788 0.366185 -4.04794 0.0596619 -0.21496 -0.0227021
145 1 5.78797 11.4174 1.14621 0.913579 -3.10787 0.676852 0.314776 -4.00117 -0.350602 0.302413 0.502307
147 1 8.63173 11.5707 1.2518 -2.52053 -2.66134 -2.016 0.192019 -4.02982 -0.436819 0.167204 -0.635757
37 1 8.64539 8.6808 -1.77959 -0.410704 1.96136 0.795798 0.370196 -4.08075 -0.689293 0.0162916 -0.273292
41 1 14.1834 11.5242 -1.81431 -1.35835 -5.95404 3.83557 0.247739 -4.02447 -0.388972 0.116169 -0.0792014
131 1 14.189 8.78043 1.26758 -1.59748 2.05417 3.03081 0.406325 -3.95426 0.469305 -0.553958 -0.208922
38 1 10.1092 10.2499 -0.265894 0.647054 3.02786 -2.05404 0.496272 -4.03261 -0.84604 -0.501401 0.601403
39 1 11.3428 8.78317 -1.86239 2.80774 -0.622395 -1.00191 0.223787 -4.03497 0.665228 -0.164871 0.386019
40 1 12.8549 10.1114 -0.247895 -1.75728 -0.634733 -0.267602 0.247081 -4.03917 0.107461 -0.0601304 -0.373066
139 1 11.4119 8.69776 1.23293 -0.425376 2.4171 -0.0430739 0.110251 -4.06021 0.0919225 0.169928 -0.62073
149 1 11.4267 11.5446 1.23384 -0.904464 -0.906018 0.248794 0.177603 -4.03356 -0.160801 0.0391177 -0.464977
49 1 11.351 11.4979 -1.83293 -3.94296 -1.72452 -3.57845 0.144821 -3.99107 0.131579 -0.0243814 0.0834864
42 1 1.60077 12.9976 -0.471165 -0.841826 -0.173751 0.753914 0.429837 -4.02715 -0.58082 -0.0163464 0.200385
44 1 4.30049 12.9516 -0.486837 -1.17519 0.372824 -0.13007 0.111111 -4.09561 0.136053 -0.136162 0.0374079
52 1 1.58776 15.7356 -0.234289 -0.585983 1.26946 1.71295 5.11842 -3.92381 -0.694755 -0.0794591 -0.865806
54 1 4.38463 15.6552 -0.388265 0.269637 0.959657 1.9614 0.274084 -4.04798 -0.265909 0.369994 -0.177342
153 1 2.9946 14.2978 1.15709 -3.03426 -0.361765 3.65674 0.166279 -3.97037 -0.316406 0.0423323 0.322381
46 1 7.13899 12.8477 -0.41365 -0.042375 -0.703018 -2.37022 0.225865 -3.98906 -0.0350583 0.589846 0.269754
56 1 7.08452 15.7726 -0.46989 0.19616 0.505449 -1.21975 0.25582 -4.0502 0.456826 -0.519687 0.219015
155 1 5.76502 14.3443 1.09837 -0.699273 2.50818 -2.71856 0.103746 -4.0296 0.170354 -0.0941536 -0.0143361
157 1 8.53251 14.4644 1.18513 1.77519 1.9958 -4.01974 5.10334 -4.04059 -0.10333 -0.0550664 0.332
57 1 8.49816 14.3386 -1.77119 5.27468 2.46447 0.151665 0.509314 -3.93309 0.284501 0.173971 -0.976198
51 1 14.0057 14.3518 -1.91586 5.08997 3.62125 -2.07853 4.81468 -3.94183 1.09082 -0.42436 -0.133207
151 1 14.2009 14.4155 1.16576 -4.71089 2.01634 -0.85659 0.123885 -3.94974 0.0847117 -0.2549 0.340426
48 1 9.93985 13.0563 -0.361346 2.86016 2.34417 0.701272 0.2722 -4.01778 0.485079 -0.51991 0.00761458
50 1 12.7181 12.9904 -0.364135 0.559624 -1.36974 -0.820506 0.17993 -4.02517 -0.22293 -0.0803402 -0.0595447
58 1 9.99316 15.7186 -0.379963 -3.3381 -1.51398 5.38263 0.173793 -4.0456 -0.0888828 0.12599 -0.251057
60 1 12.7967 15.7437 -0.374148 1.53771 1.90327 -4.70531 0.112602 -4.03877 -0.497 0.118907 0.79206
159 1 11.3491 14.3264 1.21742 -0.265735 -1.65506 -3.98071 0.152767 -4.02753 0.198351 0.333774 -0.106343
62 1 1.43944 18.5161 -0.337508 0.272627 0.831543 -0.200207 0.116461 -3.98571 0.10644 0.0226223 -0.412339
64 1 4.38586 18.6552 -0.33321 1.24428 1.0664 2.86252 5.21263 -3.9826 -0.108656 -0.853607 0.19375
163 1 2.94245 17.1558 1.04901 0.341627 2.40032 0.506019 0.397461 -3.99901 0.279527 0.280069 0.216842
171 1 0.141802 19.9783 1.25576 -0.0590841 -1.37942 4.27312 0.172301 -4.08797 -0.111401 -0.245005 -0.278422
173 1 2.89555 19.9823 1.13446 0.785649 -1.23368 2.3689 0.147281 -4.06486 -0.567713 -0.302065 0.48735
66 1 7.24355 18.6165 -0.33401 2.75597 -4.35103 0.905848 5.48285 -4.10279 -0.571062 -0.107817 0.119776
67 1 8.57677 17.1461 -1.89146 -4.30079 -3.56988 1.31798 0.0495659 -4.10511 -0.144864 -0.185245 -0.0678013
165 1 5.78304 17.093 1.08908 1.97311 1.99329 -0.167527 0.241135 -4.00382 -0.475813 0.490421 0.287226
167 1 8.56005 17.078 1.03443 1.63712 1.01306 -0.622391 4.69015 -4.0546 0.36794 0.110606 0.582365
175 1 5.70632 20.007 1.16103 -3.42076 -2.85137 2.01629 0.134583 -4.01213 0.196872 0.150061 -0.160495
177 1 8.58858 20.043 1.37152 -1.05917 0.80188 -0.731301 0.994774 -3.9779 -0.0465067 -0.417152 -0.615248
75 1 5.71713 19.9361 -1.90663 -4.53949 -0.9021 2.29786 0.130422 -4.02082 -0.381848 0.347735 -0.575843
65 1 5.67248 17.193 -1.86759 -1.31158 -3.63153 -0.620776 0.334107 -4.06249 0.461875 0.0437098 -0.110718
161 1 14.1852 17.2046 1.26112 -8.06951 -0.86164 0.0732044 0.216854 -4.08736 -0.379893 -0.139521 -0.337373
68 1 9.83757 18.5862 -0.307022 1.01621 0.95189 3.77626 5.27835 -4.06606 0.912375 0.734776 -0.302
70 1 12.7582 18.5098 -0.348454 -2.75978 -0.241021 0.901339 0.156891 -3.94799 0.153923 0.447029 -0.314472
169 1 11.4357 17.1907 1.15023 -0.050047 0.778513 1.36961 0.11069 -4.01123 -0.576416 0.029514 0.0147578
179 1 11.4548 19.9395 1.2377 0.478562 4.61523 -0.247094 0.248945 -4.04656 -0.377974 -0.120844 -0.174633
69 1 11.3235 17.1806 -1.80802 2.51938 -0.439877 2.89062 0.217269 -4.01814 -0.0332011 -0.231326 -0.196807
71 1 14.189 20.001 -1.80119 -3.02828 1.71166 0.793185 0.303713 -3.90544 -0.311034 -0.665431 -0.0470258
61 1 14.2026 17.0274 -1.84246 -2.79754 0.110739 5.17862 0.295911 -3.97267 -0.0746657 0.0127208 0.0317159
72 1 1.54936 21.3951 -0.433093 2.3338 -3.4761 -2.56089 0.175834 -4.08958 -0.468666 0.162539 -0.338317
74 1 4.24289 21.3195 -0.30049 -0.775897 2.76848 -0.309503 0.3677 -4.14328 0.254491 0.255267 -0.288072
82 1 1.5098 24.075 -0.507224 -0.197856 1.54937 -4.05427 0.292649 -4.06908 -0.275475 0.290743 -0.00796881
84 1 4.24694 24.1216 -0.357448 1.75243 2.83472 -4.12876 0.394876 -3.97884 0.334465 0.247676 -0.30087
181 1 0.128659 22.763 1.09762 -3.03311 -1.67311 -0.629939 0.0471461 -4.05589 0.227301 -0.379258 -0.0342982
183 1 2.89382 22.7594 1.05429 0.572942 -1.11899 -0.365379 0.16042 -4.08536 -0.314678 0.437874 0.271938
76 1 7.14056 21.2635 -0.384213 -0.691281 0.193514 1.05787 5.27373 -3.92707 0.457249 0.532 0.274286
86 1 7.25436 24.2668 -0.381532 -2.43118 3.29649 -1.15762 5.58835 -3.91914 0.196879 -0.504169 -0.171484
185 1 5.72509 22.8979 1.05946 3.67767 -2.14848 -3.35625 0.470579 -4.04161 0.108276 -1.02241 -0.22504
187 1 8.47118 22.692 1.23429 -0.732136 -0.532565 -1.73565 0.588049 -4.02769 0.28877 0.170061 -0.427449
78 1 9.92402 21.3232 -0.440832 -2.14879 -1.2859 1.20999 0.221763 -4.03971 0.119891 0.0816375 0.516495
80 1 12.7264 21.3466 -0.364365 -2.02506 0.894117 1.33119 0.0642338 -3.98802 0.838477 -0.193848 -0.0414701
88 1 9.99398 24.1702 -0.339949 -1.34963 2.3224 -3.76156 0.202916 -4.03855 -0.1696 -0.138617 0.0179928
90 1 12.8226 24.1983 -0.474578 -3.32555 -1.34099 0.789537 0.180872 -3.98694 -0.794851 -0.15915 0.159868
189 1 11.404 22.6532 1.07919 1.1462 2.87937 3.03823 0.287735 -3.94812 -0.0859126 0.57642 -0.131434
92 1 1.49183 27.0716 -0.395108 -1.55268 0.823337 -0.21304 0.0689469 -3.99752 -0.238442 -0.48969 0.048432
93 1 2.95679 25.6072 -1.89628 -2.98218 -1.24306 2.03838 0.169444 -4.02186 0.13341 0.0313653 -0.467799
94 1 4.31233 27.0701 -0.234051 -2.42482 -0.468398 -1.32983 0.674404 -3.97045 -0.203468 -0.0115914 -0.687152
193 1 2.87926 25.4829 1.06938 -1.0862 0.475835 1.41936 0.412245 -3.97447 -0.165302 0.366784 0.231291
5 1 5.72241 28.2956 -1.83414 2.69086 -0.906142 0.0342517 5.0326 -4.01806 -0.0682676 0.29944 -0.267577
107 1 8.62684 28.3911 1.17865 1.62718 -2.83475 -3.52836 0.29603 -4.08041 -0.260106 0.987489 -0.321755
96 1 7.19496 27.0059 -0.392847 3.8854 -2.09663 -3.2721 0.0381575 -4.06954 -0.126751 0.13908 0.291203
195 1 5.7699 25.6353 1.08469 -1.7019 -1.17403 1.74296 0.132022 -3.98001 -0.311165 0.245896 0.396694
197 1 8.65402 25.6862 1.13851 -0.592902 -0.620959 0.00800132 0.320578 -4.06872 -0.380634 -0.280672 0.445783
7 1 8.51249 28.4072 -1.81264 0.305773 -1.36188 3.04787 0.338281 -4.0058 -0.306907 -0.280345 -0.300925
191 1 14.1954 25.5315 1.09409 -0.0885336 -4.4938 -0.48509 0.207715 -3.94604 0.770078 0.0543486 -0.909184
98 1 9.85719 27.0277 -0.437947 2.60699 4.64685 0.62246 0.397274 -4.11298 0.66662 -0.07108 -0.367827
100 1 12.8111 27.1397 -0.382014 0.688756 2.41483 -3.36628 0.110504 -4.01014 0.284118 -0.198958 -0.0482308
199 1 11.3947 25.7747 1.14011 -1.77748 -0.753815 0.440887 0.582428 -3.96496 0.7013 -0.352393 -0.152412
99 1 11.3966 25.6653 -1.85277 -3.11862 -0.640777 0.494149 0.139383 -4.04047 -0.140001 -0.236228 0.0011681
102 1 1.43258 1.58866 2.69734 7.38627 -3.29026 1.48818 0.29529 -4.06808 0.446408 0.101111 0.275376
104 1 4.40471 1.70471 2.60589 -2.62904 -0.431866 -2.50035 0.229829 -4.01816 -0.408617 0.0783683 -0.573859
202 1 1.64591 1.56967 5.61104 2.02744 3.5456 -1.59179 4.56702 -4.05192 -0.604218 0.951988 0.00707234
203 1 2.94499 0.259696 4.1557 -1.3304 -3.48688 0.0854903 0.128625 -4.07907 0.193672 -0.0855614 -0.197826
204 1 4.18458 1.68524 5.69332 -0.935437 1.48785 2.63114 4.48576 -4.02877 1.2175 -0.246151 -0.425461
213 1 2.88677 3.08084 4.12099 -2.28947 -0.845795 -1.07431 0.351856 -4.06307 0.0437862 -0.0860804 -0.235908
106 1 7.15632 1.63052 2.59063 0.736671 -1.16949 0.0239501 0.239716 -4.098 0.631704 0.419826 0.880135
205 1 5.64874 0.299036 4.01948 2.33469 0.995414 0.291621 4.61025 -3.95357 0.456115 -0.267499 1.01747
206 1 7.2548 1.68985 5.6543 -1.46106 -1.55409 1.7364 4.74857 -3.99329 -0.372621 -0.457976 -0.139879
207 1 8.58474 0.236208 4.23253 1.31666 3.04051 1.49325 0.149646 -4.00264 0.129942 -0.0706316 -0.847148
215 1 5.78167 2.95842 4.28559 -1.49422 -2.50707 3.51511 0.519811 -4.00985 -0.464168 0.233408 -0.31914
217 1 8.60442 3.0921 4.17917 -1.80041 2.92479 -5.24384 0.121838 -4.05352 -0.184412 0.0576097 -0.102459
201 1 14.2143 0.277593 4.23621 -0.76465 1.66164 -3.30675 0.318156 -4.05213 -0.500143 -0.183839 0.0789264
211 1 14.1953 3.09372 4.29076 0.131749 -3.47244 0.658656 0.267875 -4.00426 0.14093 -0.488584 -0.14039
108 1 9.98023 1.81548 2.71919 1.78008 -0.0382443 0.481447 5.52951 -3.95162 0.135052 -1.01608 0.116236
110 1 12.7567 1.63776 2.62808 0.143622 0.261967 0.471904 0.160549 -3.93472 0.260385 0.3101 0.201271
219 1 11.4042 3.08595 4.20425 2.96876 -3.6 -0.306264 0.0657155 -3.98529 0.00721008 -0.25649 -0.0388214
112 1 1.47335 4.44722 2.78187 -2.08488 5.53109 1.88305 0.238488 -3.98816 0.386462 0.808396 0.125772
114 1 4.45714 4.53943 2.79441 0.408107 -1.46821 1.68028 5.09945 -4.06238 0.00668642 -0.667446 -0.252406
122 1 1.5387 7.19477 2.7487 -2.178 2.10286 -1.52883 0.266154 -3.93635 -0.2552 0.371278 0.147308
124 1 4.30599 7.3213 2.72581 -1.70609 -0.894295 0.386355 0.15841 -3.96867 0.0083003 0.0222951 0.363683
223 1 3.00176 5.86832 4.24409 -2.9209 -3.41332 -1.19244 0.119936 -4.05818 0.169152 -0.126427 0.372357
116 1 7.08446 4.43511 2.72624 -0.717838 -0.661302 1.69127 5.20043 -4.05018 0.558381 0.240886 0.125295
126 1 7.33953 7.39572 2.70501 1.37971 -3.46356 0.697126 0.493122 -3.94044 -0.505031 -0.476774 -0.160532
216 1 7.15048 4.45322 5.61247 0.663868 1.20315 1.59813 0.338377 -4.0913 -0.173565 0.276219 0.11325
225 1 5.7941 6.05956 4.15825 0.299468 -1.75276 -1.18853 0.622255 -4.00331 -0.294979 -0.228389 0.208379
227 1 8.61587 5.8789 4.16488 -0.532809 -0.371899 0.126652 0.133672 -4.00997 -0.402062 -0.0509571 0.208377
221 1 14.1524 5.86373 4.25827 0.796103 -1.93786 -0.0692733 0.128122 -4.03934 0.00613276 0.221164 -0.631641
118 1 10.0291 4.4796 2.68892 -2.00022 0.251406 -1.34662 0.102717 -4.08739 -0.077784 0.174135 -0.557904
120 1 12.7727 4.51546 2.62454 -2.93314 -0.0391201 0.674702 0.114117 -4.05454 -0.157553 0.115483 0.244551
128 1 10.0124 7.32217 2.63986 -2.7644 2.28321 3.1472 0.129664 -4.07045 -0.751053 0.302785 0.343052
130 1 12.7448 7.26336 2.64581 -1.8326 -3.86476 -3.53257 0.163471 -4.06866 0.441886 -0.0353641 0.444172
218 1 9.92391 4.44006 5.7258 2.54663 2.02038 1.45237 0.0884997 -4.07469 0.406732 0.224125 0.170863
220 1 12.7806 4.44772 5.71753 -0.879614 -1.25736 1.20844 0.0637857 -3.9483 -0.0425326 -0.0293316 0.156496
229 1 11.2652 5.91426 4.23791 0.58398 1.74186 -1.1864 0.301173 -4.05755 0.86413 0.0231486 0.289277
230 1 12.8446 7.35538 5.64214 2.31232 0.678649 1.21522 0.27629 -4.02014 -0.379902 -0.872675 0.475622
132 1 1.49806 10.2454 2.60577 0.926583 1.77752 2.20689 0.203333 -4.00602 -0.29974 -0.284291 0.563425
134 1 4.33421 10.2257 2.74389 -1.95039 -2.01599 -1.69927 0.278987 -3.98582 0.297905 -0.708171 0.213082
233 1 2.86938 8.7146 4.26088 -0.683116 0.194601 5.31636 0.145857 -3.96956 0.145418 -0.253644 -0.324112
234 1 4.30212 10.2221 5.72372 -0.621179 0.157015 -0.123602 5.35985 -4.02954 0.73246 -0.264743 -0.139788
241 1 0.149986 11.5192 4.15968 -2.41095 0.904273 -0.0212207 0.0929659 -4.04515 -0.146168 0.270104 -0.00863446
243 1 2.87755 11.525 4.1065 -0.234391 0.744033 0.670144 0.247753 -4.01598 0.127499 -0.314881 0.172168
136 1 7.34978 10.1327 2.72108 0.629619 0.98562 1.20116 4.94194 -4.07059 -0.445217 0.394155 -0.423569
235 1 5.87066 8.81598 4.13065 0.465343 -1.43871 1.4062 0.383273 -4.03618 -0.2643 -0.620306 0.0391303
237 1 8.63235 8.75913 4.35553 2.56455 0.935182 0.542097 0.372754 -4.1068 0.248777 -0.0807512 -0.55236
245 1 5.87987 11.5851 4.19584 0.240801 -0.541356 -0.243051 0.424148 -4.02497 -0.594453 -0.304895 -0.189546
247 1 8.6244 11.498 4.30604 0.432483 -3.51449 2.45946 0.198049 -4.09788 -0.215236 0.856296 0.293169
231 1 14.2058 8.74973 4.15865 -0.187028 1.52542 1.17023 0.0865804 -4.0756 0.28043 0.0263629 -0.0914429
138 1 9.92992 10.142 2.65345 -1.64946 -2.47072 4.24093 5.18749 -4.11471 0.558862 -0.0413141 0.42765
140 1 12.8378 10.2224 2.6617 -3.06779 0.590986 0.953237 0.194795 -4.08436 -0.543725 -0.224797 0.152573
239 1 11.364 8.67474 4.16609 1.07823 -1.10089 5.00007 0.0995349 -4.06781 0.348832 -0.0452963 -0.0387246
240 1 12.788 10.0949 5.57143 0.473313 1.12475 -2.36237 0.38289 -3.95796 -0.000409079 0.399324 0.713663
249 1 11.3994 11.5636 4.29514 0.00818624 4.09037 -1.73351 0.251781 -4.04962 -0.33795 -0.410118 -0.0351223
142 1 1.52181 13.0509 2.76559 -1.28477 -4.17543 2.9049 0.355343 -4.07433 0.296361 -0.292234 -0.515423
144 1 4.29805 12.8216 2.59529 1.81958 -2.20134 0.0142737 4.84305 -4.0133 0.31746 0.765063 0.59598
152 1 1.51339 15.8576 2.74108 -0.669006 2.84052 -0.820189 5.28465 -4.12319 0.319654 -0.915748 -0.453958
154 1 4.25725 15.7179 2.65373 2.46855 -1.35996 -1.82568 0.307152 -4.01703 0.541746 0.212901 -0.398504
242 1 1.53992 12.9165 5.6924 0.280113 3.4737 -1.1283 0.121586 -4.09007 0.179916 0.381318 -0.247406
244 1 4.24982 12.7782 5.71968 2.14938 -0.0921022 -0.749942 5.2779 -4.03727 -0.107712 0.377722 -0.0924155
251 1 0.128475 14.4623 4.26066 2.68999 -0.1114 0.508103 0.22647 -4.01791 -0.126095 -0.481207 0.068523
252 1 1.63436 15.7834 5.60269 -3.12021 0.366244 0.726554 0.477378 -3.97883 0.284455 -0.00649628 0.262896
253 1 3.02926 14.3678 4.23481 0.643288 -2.70259 -2.00417 0.357686 -3.99876 -0.252925 -0.431541 0.153674
146 1 7.13468 12.9886 2.66845 1.04428 0.1527 -2.62964 0.132388 -3.89627 0.474258 -0.496286 0.151231
156 1 7.1141 15.8395 2.69603 -5.45427 -4.00032 2.42238 0.294012 -4.02343 0.291711 -0.216079 -0.189503
255 1 5.79332 14.3612 4.14991 0.949383 2.2935 -3.25327 0.180355 -4.03974 -0.368553 0.154089 0.355494
256 1 7.19239 15.8423 5.62485 -0.861153 0.781607 -0.146585 0.382776 -4.04422 0.483598 -0.551437 0.153712
257 1 8.60857 14.4287 4.25167 -2.00567 3.54744 2.76289 0.0740249 -4.02013 -0.378007 -0.66615 -0.539641
148 1 10.0789 12.8625 2.76813 2.53119 -0.204599 1.59625 5.18045 -3.99313 -0.544973 0.593531 0.0744264
150 1 12.8144 12.9078 2.73345 0.842405 -1.04171 -0.584461 0.159181 -4.09142 0.444961 0.537931 0.28931
158 1 10.0599 15.8093 2.75069 1.95172 -4.28031 -2.67566 0.258128 -3.99136 -0.0784368 -0.0893225 -0.144824
160 1 12.7974 15.8078 2.64885 2.05154 2.79304 -0.0709358 0.195215 -4.03021 0.157157 -0.188751 0.473889
250 1 12.9049 12.9601 5.67117 1.45982 -1.9964 -1.75047 0.265857 -4.05661 -0.356731 -0.153153 0.173542
259 1 11.5154 14.2983 4.19425 2.36546 0.76793 -0.871017 0.26788 -4.05219 -0.376055 0.545538 0.127264
162 1 1.61205 18.4318 2.6815 0.103087 0.473685 0.329909 5.00316 -4.03166 -0.180256 0.276523 0.26361
164 1 4.41893 18.6151 2.56538 -0.211573 3.22505 -5.20284 0.349288 -4.02347 -0.530108 -0.599137 -0.107466
262 1 1.64124 18.6991 5.70814 -1.57751 0.894061 -4.43727 5.01388 -4.06084 -0.899491 -0.503627 0.16099
263 1 3.02324 17.1738 4.18067 -2.37006 -0.133771 0.32695 0.265523 -4.06179 0.150221 0.0322539 0.484608
271 1 0.239882 19.931 4.08735 -2.9132 -1.24747 -1.34561 0.600552 -4.0383 -0.12022 0.337222 -0.135072
273 1 3.06119 20.0027 4.19704 0.40391 -0.0741893 3.19324 5.39821 -4.04335 -0.440289 0.0733147 -0.442544
166 1 7.16241 18.5363 2.66288 0.698547 0.150344 -2.49931 0.179124 -4.08749 0.121746 -0.38937 -0.33981
265 1 5.71847 17.1429 4.31837 -1.6126 -0.82668 -3.54668 0.439783 -4.04895 -0.231555 0.257332 -0.405284
266 1 7.25348 18.553 5.62611 1.95445 3.37989 -0.145865 0.551882 -3.96804 -0.337163 -0.043327 -0.0213798
267 1 8.63962 17.1234 4.12104 1.62128 1.24999 -1.44411 0.26637 -4.00615 -0.0566711 0.538622 0.129213
275 1 5.66392 19.9514 4.20342 0.0670137 -1.38317 -3.87798 5.08592 -4.03952 0.5423 0.227415 0.278368
277 1 8.52362 20.0544 4.19255 0.898333 -0.0775842 -0.479706 0.256192 -4.07078 0.321794 -0.00466169 0.24758
261 1 14.1769 17.1487 4.27471 3.22524 -0.724689 1.23685 0.356179 -4.0755 -0.120411 0.139204 0.0647372
168 1 9.9888 18.5753 2.70631 -3.61858 0.233632 -1.83299 0.209021 -4.00221 0.0376026 -0.201597 0.085317
170 1 12.8038 18.6463 2.81376 0.900172 4.64776 -2.52583 0.333304 -4.05693 0.00926446 -0.263862 -0.0730585
269 1 11.4148 17.1891 4.38206 1.22914 3.37173 -1.05524 0.397817 -4.02056 0.480196 0.444569 -0.650778
270 1 12.909 18.7314 5.71347 -1.75346 -1.91228 -0.862528 0.534735 -4.01394 -0.561548 -0.00962131 0.682299
279 1 11.3598 20.0486 4.17038 2.0114 -4.45816 0.994583 0.267639 -3.98755 -0.247553 0.0684625 0.293678
172 1 1.47279 21.4257 2.70945 2.33301 -0.225112 2.95214 0.276031 -4.04474 0.781983 -0.0618131 -0.0733785
174 1 4.32705 21.4567 2.55419 -1.27528 -0.710527 -1.51037 0.275923 -4.05181 0.261907 -0.277196 0.322056
182 1 1.5749 24.1646 2.66123 -0.784188 -3.79054 -2.16947 0.0650088 -4.07375 -0.717253 0.0240636 0.203645
184 1 4.3073 24.238 2.618 -0.587332 0.565944 -1.32797 0.144789 -4.03629 -0.0271194 -0.251143 -0.0435165
272 1 1.50093 21.4332 5.63202 -1.3891 0.701157 2.48604 0.374387 -4.09204 0.33798 -0.391116 0.680418
281 1 0.183488 22.7914 4.25758 -2.74019 0.616667 0.622568 0.157479 -3.97775 -0.180573 0.433818 -0.20148
283 1 2.92311 22.8102 4.27558 1.18139 2.06881 4.32688 0.178454 -3.98484 0.751634 -0.122819 0.11696
176 1 7.06694 21.3141 2.73042 -3.95137 -1.5893 -1.01736 0.393509 -4.03796 0.271976 -0.118497 -0.307726
186 1 7.17879 24.1447 2.56775 2.78581 2.06017 1.88695 0.192889 -3.95426 0.17897 0.457811 0.0118167
285 1 5.85589 22.7635 4.06678 1.31531 1.02106 -0.50399 0.548138 -3.97753 -0.932771 0.612983 0.644167
287 1 8.6565 22.7436 4.11321 2.42 3.87829 -0.705154 4.83004 -4.15051 -0.370754 0.379949 0.505447
178 1 9.99102 21.4199 2.62278 -1.13098 -1.50552 3.15931 0.246323 -4.06009 0.580777 0.0107901 0.198544
180 1 12.8404 21.4228 2.75656 -0.471497 0.0061306 0.269058 0.29822 -4.15602 0.119101 0.243749 0.532987
188 1 10.0407 24.0693 2.51587 -1.30348 -2.27273 0.479064 4.73358 -3.94132 -0.0113675 1.06799 0.0586113
190 1 12.925 24.1389 2.63314 -1.55903 -2.12372 1.13416 0.40164 -3.94816 -0.717093 0.435826 -0.0716511
280 1 12.8739 21.3633 5.64621 1.61778 1.13426 1.57654 0.296621 -4.09152 -0.277748 0.302843 -0.163051
289 1 11.3072 22.8471 4.19797 -3.96248 4.07387 -0.259648 0.49213 -4.06253 0.0428222 -0.09344 0.284704
290 1 12.8777 24.1232 5.7027 1.06046 -1.98762 3.24564 0.237923 -4.0581 -0.486514 0.0105098 0.0972619
192 1 1.54582 26.9795 2.69433 0.832332 -0.820942 0.130328 0.147767 -4.09374 -0.142292 -0.0131629 -0.088483
194 1 4.33343 27.1078 2.63655 -1.61671 -3.20912 1.28134 0.251489 -4.02545 -0.318789 -0.617248 -0.659353
291 1 0.123486 25.6243 4.31638 -1.91934 -0.395923 -0.219087 0.386499 -3.97904 0.301894 -0.448147 -0.132654
292 1 1.58125 27.1181 5.61745 0.521729 -0.104332 -0.21211 0.271575 -4.08953 -0.293585 -0.664732 0.0120814
293 1 3.0799 25.6086 4.16978 2.80973 1.17343 -0.298043 5.72664 -3.9668 -0.689173 -0.04528 0.312007
294 1 4.2495 27.1204 5.69519 -1.17778 2.9951 1.58236 0.252639 -4.0121 0.83535 0.191558 -0.453935
196 1 7.3038 27.0489 2.77932 3.37805 -2.98627 4.17109 4.81949 -3.97968 -0.568982 -0.121908 -0.600546
295 1 5.73558 25.636 4.14876 2.43808 0.681994 -1.51506 0.159208 -4.04525 0.440334 0.126736 -0.0489079
296 1 7.17419 27.0665 5.6072 0.309675 6.50899 -1.89168 0.249379 -3.95066 0.133338 0.266375 -0.164258
297 1 8.56397 25.5256 4.19559 -0.134748 1.31643 -3.31811 0.349709 -4.04662 0.73993 0.058289 -0.348405
209 1 11.3537 28.3011 4.26311 -0.393176 -1.47754 0.78913 5.77479 -3.92608 0.501481 0.868182 -0.559242
198 1 9.95313 27.0869 2.57409 0.689763 -0.698924 -1.31982 0.308414 -3.89217 0.350826 -0.358296 1.01301
200 1 13.0099 27.0067 2.6284 5.30296 -0.270392 0.651806 5.40274 -3.96165 -0.64383 0.0402473 0.237546
299 1 11.357 25.6421 4.23848 0.613569 6.18239 1.53807 6.09945 -3.9488 0.552801 -0.27613 0.0753718
301 1 0.190771 0.330155 7.11877 0.5675 -0.168496 -2.46061 4.83286 -4.08913 0.356538 -0.587611 0.261732
302 1 1.52998 1.64637 8.90743 -1.42736 -3.15682 0.972455 0.296545 -4.04248 0.26375 -0.0622966 -0.018563
303 1 2.87995 0.257353 7.27394 0.341516 -0.0404191 -2.60214 0.184448 -4.07641 -0.0685746 -0.635586 0.121848
304 1 4.29008 1.6221 8.74741 -4.04083 -0.468429 4.02966 0.154283 -3.98776 -0.135834 0.955374 0.497014
311 1 0.149724 2.85167 7.26557 -1.74976 0.28104 0.763369 5.11839 -3.97331 -0.333677 1.32096 -0.685995
313 1 2.89377 2.99568 7.15128 0.148637 -0.416692 -0.495992 0.349024 -3.96178 -0.381513 0.298105 0.715193
305 1 5.63949 0.272746 7.26959 -2.6762 0.601797 -1.53878 0.273994 -3.93549 0.771289 0.239126 -0.231728
306 1 7.16827 1.7968 8.77701 -0.497955 1.38302 -0.554626 0.425667 -3.9312 -0.434264 -0.822667 0.452557
307 1 8.54451 0.339894 7.31434 2.06573 -1.47317 -0.377265 0.322446 -4.05242 -0.0563093 -0.964186 0.484516
315 1 5.88369 2.98404 7.18527 0.746495 3.22544 0.384377 0.623561 -4.02902 -0.479112 0.300611 0.295612
317 1 8.5575 3.091 7.18655 0.877774 1.33708 0.284955 0.0751852 -4.1572 -0.360704 -0.146026 0.242476
208 1 9.93587 1.5992 5.74428 -2.11946 3.54369 -4.60115 0.124403 -4.12828 0.306306 0.331843 0.176907
210 1 12.7168 1.62492 5.77291 1.93469 -2.84729 3.21644 0.355703 -3.99803 -0.297004 -0.132768 -0.27335
308 1 9.85407 1.73124 8.73338 -3.32365 0.641461 0.348771 0.206096 -4.02357 0.703647 -0.471657 -0.0990789
309 1 11.427 0.271834 7.31222 2.261 -0.338001 1.59023 0.148336 -4.02419 -0.344625 0.16187 0.0491973
310 1 12.8338 1.67333 8.75481 -2.12593 2.9352 -1.91821 0.169266 -3.99974 0.0142554 -0.711999 0.265732
319 1 11.2832 3.0542 7.27328 1.40137 -1.12676 -0.599603 0.108868 -4.06407 0.694588 0.149577 -0.148393
212 1 1.5107 4.56417 5.75051 1.71349 1.1107 -0.37813 0.380541 -4.05478 0.460989 -0.71251 -0.327071
214 1 4.35594 4.34938 5.76881 -3.60792 0.888428 1.10906 4.85725 -4.02714 0.316447 0.696498 -0.510589
222 1 1.54559 7.23945 5.72886 2.60978 -1.28947 -2.65909 0.157201 -4.06692 -0.526442 0.104895 0.227852
224 1 4.45542 7.31972 5.76509 2.28078 -2.16034 3.83898 0.298218 -4.00576 -0.880462 0.563061 -0.540356
312 1 1.51633 4.46751 8.71017 6.58074 -1.87872 -2.48992 0.24637 -4.05274 0.587722 0.0998374 0.208266
314 1 4.38482 4.47065 8.826 1.38421 -0.500902 1.94911 0.155142 -3.9743 0.0551974 -0.333599 -0.525759
322 1 1.50912 7.24612 8.69626 2.77664 -2.04083 2.3912 0.110746 -4.03731 -0.337477 -0.129416 -0.0601002
323 1 3.05231 5.91185 7.19941 -1.31866 2.39502 -0.268551 0.263129 -4.00743 -0.197911 -0.121201 -0.0707705
324 1 4.3708 7.29584 8.72413 1.4459 0.563605 -1.51929 0.125506 -4.04698 0.263533 -0.510314 -0.105489
226 1 7.22143 7.27669 5.73166 -1.92098 2.73055 -2.00716 0.111043 -4.0868 0.0756029 0.0850427 0.301194
316 1 7.10763 4.57462 8.76249 2.31643 -3.52172 -0.258836 0.356916 -4.05833 -0.151618 -0.942211 -0.12057
325 1 5.76431 5.8264 7.14135 -2.43851 2.57701 -2.10025 0.252098 -4.02515 -0.249936 0.334474 0.585009
326 1 7.19795 7.24786 8.67539 -1.71798 -0.00966545 0.572563 0.257911 -4.0812 -0.630653 0.571054 -0.16973
327 1 8.55272 5.78657 7.34406 -1.12912 -0.410511 1.0442 0.517994 -4.0276 -0.158977 0.344238 -0.44743
228 1 9.92162 7.27115 5.81125 0.0778168 -0.255412 1.79302 0.259848 -4.05191 -0.047883 0.126442 0.261553
321 1 14.1448 5.82456 7.23863 4.06995 0.134137 -0.309495 0.199188 -4.01849 0.221123 0.107795 -0.106835
318 1 9.98504 4.43593 8.72801 1.75132 -4.65897 3.2673 0.0878697 -4.04969 -0.203382 0.450129 0.0564743
320 1 12.7757 4.48205 8.73479 1.89733 -3.11783 2.82706 0.186858 -3.99514 0.309373 -1.13689 0.45065
328 1 10.0129 7.28399 8.60993 2.65819 -0.927283 -2.4793 0.48562 -4.01642 -0.173876 0.237046 0.324504
329 1 11.4291 5.87426 7.2214 1.9858 -1.38951 -0.786356 0.0726338 -4.04766 0.114865 -0.100201 -0.157236
330 1 12.8425 7.28945 8.75616 -1.97867 0.420953 -1.07444 0.0939093 -4.10237 0.303771 -0.0932545 0.490994
232 1 1.56015 10.1641 5.74545 2.12226 0.0705619 -0.681687 0.212329 -4.07012 -0.384875 0.177418 -0.256909
332 1 1.46321 10.1244 8.7892 1.59487 2.03124 0.780371 0.273371 -4.04272 -0.0369331 -0.39839 0.172248