ITEM: TIMESTEP
163500
ITEM: NUMBER OF ATOMS
2000
ITEM: BOX BOUNDS pp pp pp
1.0838953229856951e-01 1.4221610467701321e+01
2.1677906459713903e-01 2.8443220935402643e+01
-4.1814651166824222e+00 6.1501465116681985e+01
ITEM: ATOMS id type x y z vx vy vz c_csym c_peratom fx fy fz
2 1 1.62332 1.66863 -2.531 -0.282889 -3.25185 -0.636516 0.279885 -3.94544 -0.169879 0.10664 -0.275869
4 1 4.35789 1.61575 -2.61074 0.990702 -5.33602 3.45801 6.04707 -3.9264 0.279506 0.210122 0.641316
11 1 0.115605 3.14255 -4.12841 0.617832 -0.194419 3.50607 0.252476 -3.86051 -0.290132 -0.401192 -0.495787
101 1 0.126621 0.284403 -0.927276 -1.57173 1.46596 2.1275 0.153697 -3.98101 0.0772081 -0.332197 -0.455995
103 1 2.85007 0.270771 -0.861419 0.287695 0.367304 -1.8153 0.250504 -3.83255 0.439 -0.101286 0.172746
111 1 0.168447 3.08626 -0.898043 -2.2925 0.592843 0.179022 0.135979 -3.93111 -0.280157 -0.226517 -0.441479
113 1 2.87763 3.13123 -0.836727 -1.71434 2.42111 -1.1208 5.96416 -3.89589 -0.0745527 -0.231839 0.0167936
13 1 2.94284 3.10367 -4.16045 -0.0706192 -1.95523 0.774801 0.0767313 -3.87357 -0.269052 -0.0730063 0.168289
6 1 7.17995 1.58532 -2.53847 -1.53139 -1.81767 -2.43971 0.235942 -3.91533 0.0167732 0.398359 -0.131313
17 1 8.63608 3.25517 -4.105 -1.24355 -0.0988133 -0.860341 10.0399 -3.91191 -0.299537 -0.313189 -0.211809
105 1 5.90739 0.22905 -0.896439 0.812795 -1.48127 -4.16198 0.29695 -3.91792 -0.193236 -0.108499 0.0193263
115 1 5.79048 3.13764 -0.912725 -0.932742 0.818202 0.0439582 0.186802 -3.90128 -0.025256 -0.571964 0.380744
117 1 8.60233 3.08029 -0.82394 0.475293 0.415756 -1.302 0.18226 -3.8874 -0.0993353 0.0113911 -0.388377
15 1 5.86915 3.09703 -4.11836 -1.1078 -3.23994 -0.243916 0.307215 -3.83834 -0.384805 -0.0907972 -0.019685
8 1 9.98472 1.71462 -2.66584 1.02028 2.64764 -1.65962 0.458568 -3.90527 0.0139358 -0.15289 0.367978
9 1 11.3244 0.287262 -4.07059 -0.628437 1.37052 0.162777 5.69642 -3.90115 0.759047 -0.344116 -0.272921
10 1 12.8557 1.68831 -2.61015 -0.261261 2.58464 0.684826 0.150342 -3.88708 -0.445816 0.255883 0.582132
109 1 11.3921 0.306018 -0.929478 4.17545 -4.26001 3.01885 0.175008 -3.89561 -0.32127 -0.38915 -0.267951
119 1 11.4562 3.11085 -0.989217 -0.877516 0.612354 1.13148 0.166592 -3.9402 -0.0856091 -0.613363 0.0165893
12 1 1.52356 4.6359 -2.64389 1.18436 1.40208 1.05812 5.9912 -3.89109 -0.199647 -0.540462 0.461094
14 1 4.34915 4.42365 -2.42833 -0.761965 1.11821 -1.53086 0.284898 -3.95384 -0.0823901 0.557523 -0.515158
22 1 1.54026 7.32431 -2.61377 0.529166 1.27637 -0.648244 6.0161 -3.87182 0.00287043 -0.217462 0.384718
23 1 3.01689 5.92797 -4.15106 4.21453 0.286138 -0.65637 5.8773 -3.8768 -0.610736 0.0694418 -0.110832
24 1 4.35552 7.36387 -2.53653 0.718611 1.41969 0.425215 0.115293 -3.90236 -0.252631 -0.107262 -0.0402892
121 1 0.132435 5.82793 -0.905703 -2.35864 3.10392 -0.471262 0.198439 -3.88786 0.312246 0.00108095 0.262832
123 1 3.01618 5.86763 -0.800902 1.00139 1.8653 -1.24788 5.98752 -3.90629 -0.20499 0.101716 -0.319215
16 1 7.14135 4.5226 -2.45165 0.603539 0.154603 0.133915 0.170543 -3.93785 0.204725 -0.403744 -0.327259
25 1 5.70759 5.92495 -4.05169 -0.827089 1.1553 2.35682 5.20269 -3.94895 0.537186 -0.480549 -0.574169
26 1 7.1412 7.16975 -2.59105 -0.0337704 2.62343 0.778117 5.3846 -3.84453 0.218448 0.74231 0.27123
125 1 5.74127 5.95799 -0.858033 -0.136011 -2.75282 -0.154075 0.13983 -4.01789 0.210668 -0.227844 0.145927
127 1 8.57446 5.88387 -1.00704 -1.51658 -3.67076 0.00771245 0.421589 -3.88542 -0.0822917 0.0420953 0.641851
18 1 10.0587 4.47472 -2.53491 2.01504 1.15568 0.108705 0.224639 -3.93151 0.0449818 0.189188 0.422346
20 1 12.7939 4.54238 -2.57193 -0.022531 3.00342 -1.17168 0.0670802 -3.9838 0.0988526 0.347836 0.154353
28 1 10.1169 7.35391 -2.43674 1.08986 -1.21663 1.80841 5.68612 -3.90581 -0.278033 0.0116213 0.168232
29 1 11.4127 5.98723 -4.16182 1.3822 1.47477 -0.555896 0.0548942 -3.94504 -0.626744 -0.567529 -0.18781
30 1 12.8531 7.28188 -2.468 0.362699 -0.519128 0.486825 0.140651 -3.95214 -0.0821603 0.247564 0.057364
129 1 11.3642 5.90889 -0.850168 -0.995542 1.01394 2.2528 0.116103 -3.99072 0.405304 -0.0506103 -0.218292
32 1 1.48279 10.1923 -2.61099 2.66336 -1.18469 0.933482 0.256561 -4.00183 0.371725 -0.587425 0.311346
34 1 4.32744 10.195 -2.60998 -3.42019 -1.92301 1.41173 0.209573 -3.9101 -0.177523 -0.265121 0.556865
43 1 2.92107 11.628 -4.15674 2.17426 0.782241 3.50485 0.127717 -4.00493 -0.306035 -0.732948 -0.447082
133 1 2.87707 8.77788 -0.868918 -1.44944 0.975575 0.710255 0.0947618 -3.83735 0.614385 -0.0634712 0.199177
141 1 0.146359 11.6297 -0.994995 -2.20193 -7.04944 -1.51669 0.356149 -3.96336 0.0693034 0.295592 0.224805
143 1 2.92416 11.521 -0.894942 -0.572232 1.1909 1.77002 0.17182 -3.9879 -0.237924 0.342886 -0.401472
36 1 7.17897 10.1662 -2.4844 0.10168 3.47717 0.174941 0.178142 -3.84422 -0.364885 -0.342109 0.0564412
47 1 8.63625 11.4798 -4.06759 -1.46078 2.66256 0.234251 0.308197 -3.92236 -0.237113 -0.0941827 -0.224386
135 1 5.71447 8.72482 -0.784798 -0.880733 0.590278 -0.109653 5.90697 -3.86314 0.357196 0.0813115 -0.300363
137 1 8.61908 8.74613 -0.966401 -4.19951 1.4167 -2.48788 0.394366 -3.93299 -0.308555 -0.333567 -0.32515
145 1 5.78797 11.4174 -0.892079 0.913579 -3.10787 0.676852 5.92965 -3.88588 -0.0168184 0.611341 0.110085
147 1 8.63173 11.5707 -0.778667 -2.52053 -2.66134 -2.016 0.208253 -3.93147 -0.465241 0.397659 -0.552169
37 1 8.64539 8.6808 -4.03464 -0.410704 1.96136 0.795798 5.61949 -3.97295 -0.00858631 0.176957 0.146016
41 1 14.1834 11.5242 -4.07192 -1.35835 -5.95404 3.83557 0.268993 -3.95391 -0.474481 0.403957 -0.204005
131 1 14.189 8.78043 -0.761726 -1.59748 2.05417 3.03081 0.451015 -3.84805 0.522053 -0.104427 -0.138872
38 1 10.1092 10.2499 -2.4088 0.647054 3.02786 -2.05404 0.505293 -3.94495 -0.561385 -0.669962 0.555345
39 1 11.3428 8.78317 -4.12357 2.80774 -0.622395 -1.00191 0.225013 -3.9325 0.628854 0.136939 0.147074
40 1 12.8549 10.1114 -2.38947 -1.75728 -0.634733 -0.267602 0.270694 -3.9301 -0.382571 -0.206476 -0.0293223
139 1 11.4119 8.69776 -0.798935 -0.425376 2.4171 -0.0430739 0.116379 -3.9927 0.411211 0.725844 -0.0689455
149 1 11.4267 11.5446 -0.797959 -0.904464 -0.906018 0.248794 0.187218 -3.95321 -0.000610592 0.226683 -0.286133
49 1 11.351 11.4979 -4.09192 -3.94296 -1.72452 -3.57845 0.14925 -3.89644 0.445494 0.134852 -0.228686
42 1 1.60077 12.9976 -2.62928 -0.841826 -0.173751 0.753914 5.51628 -3.91935 -0.281512 0.389377 0.359306
44 1 4.30049 12.9516 -2.64611 -1.17519 0.372824 -0.13007 6.29796 -3.98451 0.588556 0.149751 0.236291
52 1 1.58776 15.7356 -2.37485 -0.585983 1.26946 1.71295 5.33247 -3.78513 -0.3126 -0.0720351 -0.364652
54 1 4.38463 15.6552 -2.54024 0.269637 0.959657 1.9614 5.96339 -3.96898 -0.896573 0.0368251 -0.379766
153 1 2.9946 14.2978 -0.880394 -3.03426 -0.361765 3.65674 0.170442 -3.89442 -0.142398 0.0761166 0.200212
46 1 7.13899 12.8477 -2.5675 -0.042375 -0.703018 -2.37022 5.41752 -3.89692 0.0651041 0.343781 0.311295
56 1 7.08452 15.7726 -2.62791 0.19616 0.505449 -1.21975 0.280448 -3.98052 0.397995 0.0353516 -0.112523
155 1 5.76502 14.3443 -0.943472 -0.699273 2.50818 -2.71856 0.105911 -3.92315 0.166292 -0.347418 -0.0247279
157 1 8.53251 14.4644 -0.850282 1.77519 1.9958 -4.01974 5.3776 -3.91028 -0.037134 -0.63612 0.212931
57 1 8.49816 14.3386 -4.02562 5.27468 2.46447 0.151665 0.572296 -3.81188 -0.109373 0.221506 -0.694246
51 1 14.0057 14.3518 -4.181 5.08997 3.62125 -2.07853 9.85526 -3.83647 1.35676 -0.314026 -0.231916
151 1 14.2009 14.4155 -0.871088 -4.71089 2.01634 -0.85659 0.132709 -3.83533 -0.240597 -0.165659 0.350442
48 1 9.93985 13.0563 -2.51132 2.86016 2.34417 0.701272 5.41391 -3.91889 0.283385 -0.387158 0.470996
50 1 12.7181 12.9904 -2.51432 0.559624 -1.36974 -0.820506 0.191479 -3.9226 -0.0146827 -0.118785 0.215978
58 1 9.99316 15.7186 -2.53132 -3.3381 -1.51398 5.38263 0.187712 -3.9763 0.345367 0.540355 0.221895
60 1 12.7967 15.7437 -2.52507 1.53771 1.90327 -4.70531 0.116711 -3.98366 -0.0737957 -0.00118254 0.321353
159 1 11.3491 14.3264 -0.815598 -0.265735 -1.65506 -3.98071 0.157735 -3.9317 0.405586 0.468995 0.0966424
62 1 1.43944 18.5161 -2.48572 0.272627 0.831543 -0.200207 0.118824 -3.8826 0.281771 0.213357 -0.0609725
64 1 4.38586 18.6552 -2.4811 1.24428 1.0664 2.86252 5.54832 -3.89304 -0.310997 -0.855771 0.101468
163 1 2.94245 17.1558 -0.99648 0.341627 2.40032 0.506019 0.433729 -3.91386 0.509545 0.231213 0.385044
171 1 0.141802 19.9783 -0.774416 -0.0590841 -1.37942 4.27312 0.185531 -3.98556 -0.623088 -0.349329 -0.569406
173 1 2.89555 19.9823 -0.904705 0.785649 -1.23368 2.3689 0.154269 -3.96685 -0.481964 -0.31427 0.359836
66 1 7.24355 18.6165 -2.48196 2.75597 -4.35103 0.905848 5.01582 -3.96938 -0.449062 0.245617 -0.329757
67 1 8.57677 17.1461 -4.1548 -4.30079 -3.56988 1.31798 0.0496387 -4.01054 -0.254057 -0.0993041 0.0586873
165 1 5.78304 17.093 -0.953446 1.97311 1.99329 -0.167527 0.251933 -3.92075 -0.0931952 0.0859636 -0.0323255
167 1 8.56005 17.078 -1.01214 1.63712 1.01306 -0.622391 4.94939 -3.95442 0.00765342 0.0990409 0.764453
175 1 5.70632 20.007 -0.876164 -3.42076 -2.85137 2.01629 0.140347 -3.93298 0.661572 0.179159 -0.150795
177 1 8.58858 20.043 -0.650082 -1.05917 0.80188 -0.731301 5.43378 -3.88756 0.101934 -0.650926 -0.616459
75 1 5.71713 19.9361 -4.17108 -4.53949 -0.9021 2.29786 6.50598 -3.91244 0.10398 -0.125576 -0.533699
65 1 5.67248 17.193 -4.12915 -1.31158 -3.63153 -0.620776 0.349749 -3.94882 0.288544 -0.150806 -0.0169628
161 1 14.1852 17.2046 -0.768662 -8.06951 -0.86164 0.0732044 0.233866 -3.99444 0.107571 0.30576 -0.553692
68 1 9.83757 18.5862 -2.45298 1.01621 0.95189 3.77626 5.62042 -3.94728 0.622752 0.716047 0.0958744
70 1 12.7582 18.5098 -2.49748 -2.75978 -0.241021 0.901339 0.161813 -3.84376 0.0894279 0.39201 -0.0171092
169 1 11.4357 17.1907 -0.887764 -0.050047 0.778513 1.36961 0.11543 -3.90989 -0.382436 -0.24002 0.0630535
179 1 11.4548 19.9395 -0.79382 0.478562 4.61523 -0.247094 6.22765 -3.94589 -0.333661 0.362829 -0.0275154
69 1 11.3235 17.1806 -4.06517 2.51938 -0.439877 2.89062 0.238506 -3.90627 0.226322 -0.183209 -0.507258
71 1 14.189 20.001 -4.05784 -3.02828 1.71166 0.793185 0.324181 -3.81142 0.0106441 -0.640626 -0.0596915
61 1 14.2026 17.0274 -4.10217 -2.79754 0.110739 5.17862 0.31413 -3.86246 -0.111651 0.435777 -0.0547255
72 1 1.54936 21.3951 -2.58839 2.3338 -3.4761 -2.56089 6.00609 -3.99138 -0.292996 -0.0778301 -0.09283
74 1 4.24289 21.3195 -2.44596 -0.775897 2.76848 -0.309503 0.399054 -4.06004 0.374131 0.171005 -0.356832
82 1 1.5098 24.075 -2.66801 -0.197856 1.54937 -4.05427 0.309796 -3.96716 0.0022843 0.610846 -0.0823386
84 1 4.24694 24.1216 -2.50714 1.75243 2.83472 -4.12876 5.35915 -3.89117 0.621083 0.347426 -0.0504911
181 1 0.128659 22.763 -0.944269 -3.03311 -1.67311 -0.629939 0.0494279 -3.9743 -0.0562099 -0.308011 -0.33806
183 1 2.89382 22.7594 -0.990815 0.572942 -1.11899 -0.365379 0.180774 -4.03306 -0.144302 0.345064 0.421884
76 1 7.14056 21.2635 -2.53588 -0.691281 0.193514 1.05787 5.62898 -3.79577 -0.0220949 0.564551 0.0929411
86 1 7.25436 24.2668 -2.533 -2.43118 3.29649 -1.15762 5.992 -3.80751 0.187809 -0.611158 0.0555464
185 1 5.72509 22.8979 -0.985258 3.67767 -2.14848 -3.35625 5.72832 -3.95843 0.320069 -0.858826 -0.0681687
187 1 8.47118 22.692 -0.797482 -0.732136 -0.532565 -1.73565 5.48575 -3.91649 0.368034 0.233855 -0.432901
78 1 9.92402 21.3232 -2.5967 -2.14879 -1.2859 1.20999 0.240569 -3.92078 -0.180415 0.34965 0.74512
80 1 12.7264 21.3466 -2.51457 -2.02506 0.894117 1.33119 0.0661854 -3.89121 0.62494 0.317471 -0.370349
88 1 9.99398 24.1702 -2.48834 -1.34963 2.3224 -3.76156 0.220855 -3.88532 -0.192188 -0.171089 -0.0738917
90 1 12.8226 24.1983 -2.63294 -3.32555 -1.34099 0.789537 0.191114 -3.86021 -0.69444 0.134335 0.229742
189 1 11.404 22.6532 -0.964072 1.1462 2.87937 3.03823 0.298181 -3.84235 0.32021 0.81119 0.305561
92 1 1.49183 27.0716 -2.54759 -1.55268 0.823337 -0.21304 0.0704743 -3.87371 0.105672 -0.0515147 -0.165513
93 1 2.95679 25.6072 -4.15997 -2.98218 -1.24306 2.03838 0.183843 -3.87825 0.0184508 0.484191 -0.0448245
94 1 4.31233 27.0701 -2.3746 -2.42482 -0.468398 -1.32983 0.746475 -3.87461 -0.0620847 -0.091447 -0.678377
193 1 2.87926 25.4829 -0.974606 -1.0862 0.475835 1.41936 5.76997 -3.89423 0.07222 0.421386 0.176524
5 1 5.72241 28.2956 -4.09322 2.69086 -0.906142 0.0342517 5.28057 -3.9179 0.234832 0.0978336 -0.579126
107 1 8.62684 28.3911 -0.857244 1.62718 -2.83475 -3.52836 5.86981 -3.98468 -0.0212577 0.738348 -0.667444
96 1 7.19496 27.0059 -2.54516 3.8854 -2.09663 -3.2721 0.040667 -3.99373 -0.426465 0.0789826 0.4264
195 1 5.7699 25.6353 -0.958161 -1.7019 -1.17403 1.74296 6.10133 -3.83748 -0.0540108 -0.321604 0.243397
197 1 8.65402 25.6862 -0.900356 -0.592902 -0.620959 0.00800132 0.332699 -3.98629 -0.490406 -0.698848 -0.284935
7 1 8.51249 28.4072 -4.07013 0.305773 -1.36188 3.04787 0.370331 -3.92429 0.244539 0.167308 -0.345827
191 1 14.1954 25.5315 -0.948061 -0.0885336 -4.4938 -0.48509 0.210213 -3.85228 0.390128 0.350102 -0.225367
98 1 9.85719 27.0277 -2.5936 2.60699 4.64685 0.62246 5.72178 -4.01466 0.654036 -0.176347 -0.157025
100 1 12.8111 27.1397 -2.53352 0.688756 2.41483 -3.36628 0.112532 -3.89714 0.082149 -0.260487 -0.479432
199 1 11.3947 25.7747 -0.898632 -1.77748 -0.753815 0.440887 5.56116 -3.8523 0.331041 -0.523521 -0.256822
99 1 11.3966 25.6653 -4.11323 -3.11862 -0.640777 0.494149 0.14575 -3.93265 -0.0920353 0.029093 -0.241201
102 1 1.43258 1.58866 0.773955 7.38627 -3.29026 1.48818 0.301729 -3.98702 0.551887 0.349696 0.283725
104 1 4.40471 1.70471 0.675738 -2.62904 -0.431866 -2.50035 0.240504 -3.87806 -0.672367 0.304578 -0.261011
202 1 1.64591 1.56967 3.90351 2.02744 3.5456 -1.59179 4.84602 -4.00579 -0.672876 0.61779 -0.0274208
203 1 2.94499 0.259696 2.34036 -1.3304 -3.48688 0.0854903 0.132347 -4.01428 -0.174648 -0.0938355 -0.757346
204 1 4.18458 1.68524 3.99189 -0.935437 1.48785 2.63114 10.0983 -3.95222 0.920455 -0.496656 -0.0183795
213 1 2.88677 3.08084 2.30308 -2.28947 -0.845795 -1.07431 0.37405 -3.95836 -0.171176 0.0380923 -0.232243
106 1 7.15632 1.63052 0.65934 0.736671 -1.16949 0.0239501 0.260271 -4.00588 0.208204 0.184594 0.531407
205 1 5.64874 0.299036 2.19405 2.33469 0.995414 0.291621 9.53132 -3.85042 0.339875 -0.611365 0.725727
206 1 7.2548 1.68985 3.94997 -1.46106 -1.55409 1.7364 5.0163 -3.89625 -0.372616 -0.467731 0.211921
207 1 8.58474 0.236208 2.42288 1.31666 3.04051 1.49325 0.163293 -3.91759 0.533322 -0.242597 -0.63897
215 1 5.78167 2.95842 2.47987 -1.49422 -2.50707 3.51511 0.551663 -3.90185 -0.322269 0.482228 -0.510846
217 1 8.60442 3.0921 2.36556 -1.80041 2.92479 -5.24384 0.124186 -3.98559 -0.00699294 -0.154293 0.139393
201 1 14.2143 0.277593 2.42683 -0.76465 1.66164 -3.30675 0.334421 -3.9488 -0.490754 0.117737 0.244485
211 1 14.1953 3.09372 2.48543 0.131749 -3.47244 0.658656 0.296967 -3.87192 0.0988861 -0.612934 0.182746
108 1 9.98023 1.81548 0.797428 1.78008 -0.0382443 0.481447 5.87476 -3.84012 -0.091663 -0.881112 0.106667
110 1 12.7567 1.63776 0.699567 0.143622 0.261967 0.471904 0.167952 -3.82671 0.1273 0.151119 0.0977995
219 1 11.4042 3.08595 2.3925 2.96876 -3.6 -0.306264 0.0669752 -3.88841 0.198431 0.115366 0.140964
112 1 1.47335 4.44722 0.864749 -2.08488 5.53109 1.88305 0.260154 -3.89865 -0.00414684 0.871428 -0.334312
114 1 4.45714 4.53943 0.878217 0.408107 -1.46821 1.68028 5.4137 -3.96101 -0.424187 -0.612523 -0.132691
122 1 1.5387 7.19477 0.829123 -2.178 2.10286 -1.52883 0.270377 -3.81879 -0.573619 0.185146 0.315814
124 1 4.30599 7.3213 0.804535 -1.70609 -0.894295 0.386355 0.162328 -3.91016 -0.148691 -0.0472046 0.112663
223 1 3.00176 5.86832 2.4353 -2.9209 -3.41332 -1.19244 0.12081 -3.94731 -0.139808 -0.176203 0.0395805
116 1 7.08446 4.43511 0.804995 -0.717838 -0.661302 1.69127 5.52923 -3.92491 0.314907 0.223098 0.0568379
126 1 7.33953 7.39572 0.782198 1.37971 -3.46356 0.697126 5.7467 -3.82595 -0.786151 -0.227901 -0.0253433
216 1 7.15048 4.45322 3.90505 0.663868 1.20315 1.59813 0.369563 -3.99092 0.239631 0.157583 0.18259
225 1 5.7941 6.05956 2.34309 0.299468 -1.75276 -1.18853 5.80823 -3.89125 -0.222943 -0.562001 -0.0513198
227 1 8.61587 5.8789 2.35022 -0.532809 -0.371899 0.126652 0.14406 -3.91704 0.189661 -0.153179 0.312516
221 1 14.1524 5.86373 2.45053 0.796103 -1.93786 -0.0692733 0.136135 -3.94756 0.16884 0.327309 -0.0885253
118 1 10.0291 4.4796 0.76491 -2.00022 0.251406 -1.34662 5.76667 -3.99952 -0.278935 0.179205 -0.0570887
120 1 12.7727 4.51546 0.695762 -2.93314 -0.0391201 0.674702 0.126465 -3.94265 0.0896947 -0.337239 0.184203
128 1 10.0124 7.32217 0.71222 -2.7644 2.28321 3.1472 5.83079 -3.98692 -0.374149 -0.250274 0.300528
130 1 12.7448 7.26336 0.718616 -1.8326 -3.86476 -3.53257 0.177048 -3.95428 0.396786 0.230725 0.16921
218 1 9.92391 4.44006 4.02677 2.54663 2.02038 1.45237 0.0904778 -3.96535 0.0906117 0.177213 0.323042
220 1 12.7806 4.44772 4.01789 -0.879614 -1.25736 1.20844 0.0668586 -3.84066 -0.185511 0.327949 0.0283216
229 1 11.2652 5.91426 2.42866 0.58398 1.74186 -1.1864 5.44318 -3.96539 0.918282 0.0166525 0.167487
230 1 12.8446 7.35538 3.93692 2.31232 0.678649 1.21522 0.285414 -3.92517 -0.631967 -0.270144 -0.0268701
132 1 1.49806 10.2454 0.675606 0.926583 1.77752 2.20689 0.212248 -3.92811 0.172221 -0.51365 0.0426065
134 1 4.33421 10.2257 0.823952 -1.95039 -2.01599 -1.69927 5.68534 -3.88901 -0.115661 -0.429037 -0.128832
233 1 2.86938 8.7146 2.45333 -0.683116 0.194601 5.31636 0.150492 -3.82041 0.102546 -0.0208311 -0.46918
234 1 4.30212 10.2221 4.02454 -0.621179 0.157015 -0.123602 5.68819 -3.89719 0.103433 -0.146564 -0.174056
241 1 0.149986 11.5192 2.34464 -2.41095 0.904273 -0.0212207 0.0973868 -3.97026 -0.233001 0.236036 0.237697
243 1 2.87755 11.525 2.28751 -0.234391 0.744033 0.670144 0.271595 -3.94526 -0.169609 0.244881 0.554454
136 1 7.34978 10.1327 0.799455 0.629619 0.98562 1.20116 5.22413 -3.99283 -0.887539 -0.0627481 -0.302571
235 1 5.87066 8.81598 2.31345 0.465343 -1.43871 1.4062 0.409576 -3.92129 -0.437209 -0.60276 0.458924
237 1 8.63235 8.75913 2.55499 2.56455 0.935182 0.542097 0.419695 -4.02614 -0.481505 -0.0760187 -0.329147
245 1 5.87987 11.5851 2.38347 0.240801 -0.541356 -0.243051 0.426952 -3.91672 -0.449188 -0.0893692 0.111614
247 1 8.6244 11.498 2.50183 0.432483 -3.51449 2.45946 6.10613 -4.00914 -0.173614 0.249899 -0.327299
231 1 14.2058 8.74973 2.34352 -0.187028 1.52542 1.17023 0.088987 -3.95532 0.529944 -0.303778 -0.299372
138 1 9.92992 10.142 0.726817 -1.64946 -2.47072 4.24093 5.49078 -4.01277 0.548333 -0.489495 0.512198
140 1 12.8378 10.2224 0.735676 -3.06779 0.590986 0.953237 0.206821 -3.97174 -0.183964 -0.571323 0.227723
239 1 11.364 8.67474 2.35152 1.07823 -1.10089 5.00007 0.10567 -3.95343 0.0589863 0.358902 0.224722
240 1 12.788 10.0949 3.86097 0.473313 1.12475 -2.36237 10.5784 -3.87174 0.456893 0.118783 0.433644
249 1 11.3994 11.5636 2.49013 0.00818624 4.09037 -1.73351 0.277852 -3.95352 -0.111239 -0.280528 -0.528203
142 1 1.52181 13.0509 0.847261 -1.28477 -4.17543 2.9049 0.384479 -3.93909 0.117921 0.115511 -0.0243151
144 1 4.29805 12.8216 0.664348 1.81958 -2.20134 0.0142737 5.10824 -3.90746 0.335126 0.958497 0.277897
152 1 1.51339 15.8576 0.820943 -0.669006 2.84052 -0.820189 5.6196 -4.0259 0.258264 -0.43081 -0.116124
154 1 4.25725 15.7179 0.727114 2.46855 -1.35996 -1.82568 0.313464 -3.9077 0.540391 0.115592 -0.126164
242 1 1.53992 12.9165 3.9909 0.280113 3.4737 -1.1283 0.132576 -3.97235 0.509494 0.410059 0.0841598
244 1 4.24982 12.7782 4.0202 2.14938 -0.0921022 -0.749942 5.62893 -3.90302 0.102012 0.279528 0.074457
251 1 0.128475 14.4623 2.45309 2.68999 -0.1114 0.508103 0.238549 -3.924 0.0789738 -0.381467 -0.332483
252 1 1.63436 15.7834 3.89454 -3.12021 0.366244 0.726554 4.8279 -3.87805 -0.10948 -0.160985 0.50652
253 1 3.02926 14.3678 2.42533 0.643288 -2.70259 -2.00417 0.373293 -3.92356 0.0285152 -0.362281 -0.0993619
146 1 7.13468 12.9886 0.742923 1.04428 0.1527 -2.62964 0.134604 -3.81349 0.732576 -0.386295 -0.0350808
156 1 7.1141 15.8395 0.772547 -5.45427 -4.00032 2.42238 0.307533 -3.9374 -0.0316621 -0.129095 0.139389
255 1 5.79332 14.3612 2.33414 0.949383 2.2935 -3.25327 6.25498 -3.90412 -0.158681 0.362992 0.610813
256 1 7.19239 15.8423 3.91834 -0.861153 0.781607 -0.146585 0.415447 -3.98354 0.384938 -0.355323 0.17409
257 1 8.60857 14.4287 2.44343 -2.00567 3.54744 2.76289 0.0777703 -3.90225 -0.238431 -0.614746 -0.272246
148 1 10.0789 12.8625 0.849997 2.53119 -0.204599 1.59625 5.44638 -3.89425 -0.43519 0.543437 -0.0323999
150 1 12.8144 12.9078 0.812743 0.842405 -1.04171 -0.584461 0.168132 -3.98668 0.591588 0.00189266 -0.141262
158 1 10.0599 15.8093 0.831263 1.95172 -4.28031 -2.67566 0.275818 -3.8619 0.110896 -0.22804 0.087817
160 1 12.7974 15.8078 0.721877 2.05154 2.79304 -0.0709358 0.216424 -3.91521 0.168556 0.00839123 0.628004
250 1 12.9049 12.9601 3.96809 1.45982 -1.9964 -1.75047 0.29282 -3.9524 -0.147718 -0.0292922 0.408103
259 1 11.5154 14.2983 2.38176 2.36546 0.76793 -0.871017 0.272089 -3.97141 -0.538707 0.72216 0.00915787
162 1 1.61205 18.4318 0.756946 0.103087 0.473685 0.329909 5.35217 -3.92193 -0.2615 0.601095 0.364485
164 1 4.41893 18.6151 0.632222 -0.211573 3.22505 -5.20284 0.378047 -3.92651 -0.290352 -0.788134 0.0654218
262 1 1.64124 18.6991 4.0078 -1.57751 0.894061 -4.43727 5.35137 -3.95098 -0.481427 -0.557739 -0.0383747
263 1 3.02324 17.1738 2.36718 -2.37006 -0.133771 0.32695 0.282575 -3.9785 0.19378 0.316478 0.583966
271 1 0.239882 19.931 2.26695 -2.9132 -1.24747 -1.34561 0.637829 -3.94615 -0.391384 0.14394 0.380698
273 1 3.06119 20.0027 2.38475 0.40391 -0.0741893 3.19324 5.73051 -3.92059 -0.188483 0.232339 -0.00564393
166 1 7.16241 18.5363 0.736949 0.698547 0.150344 -2.49931 0.201277 -3.94285 0.218645 0.106577 0.050167
265 1 5.71847 17.1429 2.51508 -1.6126 -0.82668 -3.54668 4.88482 -3.92998 -0.22641 -0.0117633 -0.462602
266 1 7.25348 18.553 3.9197 1.95445 3.37989 -0.145865 5.20874 -3.85528 -0.402315 0.329244 0.387676
267 1 8.63962 17.1234 2.30313 1.62128 1.24999 -1.44411 0.286274 -3.92041 -0.0449807 0.591274 0.56144
275 1 5.66392 19.9514 2.39161 0.0670137 -1.38317 -3.87798 5.33824 -3.92503 0.379402 0.251833 0.285518
277 1 8.52362 20.0544 2.37993 0.898333 -0.0775842 -0.479706 4.9627 -3.94647 0.385591 -0.168437 0.184939
261 1 14.1769 17.1487 2.46818 3.22524 -0.724689 1.23685 5.24909 -3.97407 0.119322 0.574724 -0.144236
168 1 9.9888 18.5753 0.783596 -3.61858 0.233632 -1.83299 0.234714 -3.89246 -0.0632101 -0.325166 0.21508
170 1 12.8038 18.6463 0.898998 0.900172 4.64776 -2.52583 0.36462 -3.97485 0.30307 -0.306885 -0.0905124
269 1 11.4148 17.1891 2.58348 1.22914 3.37173 -1.05524 0.445193 -3.93325 0.377763 0.315754 -0.865629
270 1 12.909 18.7314 4.01353 -1.75346 -1.91228 -0.862528 5.66208 -3.88199 -0.396399 -0.457224 0.269617
279 1 11.3598 20.0486 2.35613 2.0114 -4.45816 0.994583 0.291591 -3.86101 -0.349077 0.054549 0.234362
172 1 1.47279 21.4257 0.78697 2.33301 -0.225112 2.95214 0.292269 -3.94525 0.484669 -0.0650868 0.294283
174 1 4.32705 21.4567 0.620198 -1.27528 -0.710527 -1.51037 0.300602 -3.93892 -0.0842357 -0.14025 -0.043074
182 1 1.5749 24.1646 0.735176 -0.784188 -3.79054 -2.16947 0.0661775 -3.95003 -0.220632 0.0158929 9.85216e-05
184 1 4.3073 24.238 0.688739 -0.587332 0.565944 -1.32797 0.148867 -3.94756 -0.0120362 -0.0256636 -0.0205958
272 1 1.50093 21.4332 3.92604 -1.3891 0.701157 2.48604 0.407396 -4.00329 0.172896 -0.626278 0.196555
281 1 0.183488 22.7914 2.44978 -2.74019 0.616667 0.622568 0.175654 -3.91363 -0.406335 0.294805 -0.226755
283 1 2.92311 22.8102 2.46912 1.18139 2.06881 4.32688 0.200255 -3.87303 0.790481 0.209355 -0.418313
176 1 7.06694 21.3141 0.809492 -3.95137 -1.5893 -1.01736 0.405721 -3.98083 -0.139914 0.402788 -0.527702
186 1 7.17879 24.1447 0.634763 2.78581 2.06017 1.88695 0.20585 -3.86738 0.363099 0.731887 0.0796565
285 1 5.85589 22.7635 2.24485 1.31531 1.02106 -0.50399 0.593468 -3.86311 -0.574589 0.474168 0.346648
287 1 8.6565 22.7436 2.29472 2.42 3.87829 -0.705154 11.1597 -4.01261 -0.294646 0.24402 0.496413
178 1 9.99102 21.4199 0.693871 -1.13098 -1.50552 3.15931 0.268147 -4.00922 0.655851 -0.521258 -0.096404
180 1 12.8404 21.4228 0.83756 -0.471497 0.0061306 0.269058 0.326494 -4.0471 0.269719 -0.0548116 0.435438
188 1 10.0407 24.0693 0.579043 -1.30348 -2.27273 0.479064 5.01185 -3.8476 -0.0650271 1.08325 0.204664
190 1 12.925 24.1389 0.705006 -1.55903 -2.12372 1.13416 5.7927 -3.82782 -0.411878 0.033401 0.597274
280 1 12.8739 21.3633 3.94129 1.61778 1.13426 1.57654 5.8104 -3.94571 0.201695 0.23601 0.0881192
289 1 11.3072 22.8471 2.38575 -3.96248 4.07387 -0.259648 5.285 -3.95637 0.154084 0.172612 0.391082
290 1 12.8777 24.1232 4.00196 1.06046 -1.98762 3.24564 0.243662 -3.95759 -0.582364 0.448632 0.462002
192 1 1.54582 26.9795 0.770728 0.832332 -0.820942 0.130328 5.44461 -3.94027 -0.046487 0.18873 -0.28287
194 1 4.33343 27.1078 0.708665 -1.61671 -3.20912 1.28134 0.257491 -3.91782 0.124959 -0.514904 -0.608229
291 1 0.123486 25.6243 2.51294 -1.91934 -0.395923 -0.219087 0.430156 -3.8913 0.161078 -0.189186 -0.574279
292 1 1.58125 27.1181 3.9104 0.521729 -0.104332 -0.21211 5.52227 -3.98232 0.0616208 -0.333968 0.0326962
293 1 3.0799 25.6086 2.35548 2.80973 1.17343 -0.298043 6.04417 -3.87575 -0.439616 -0.189557 0.101157
294 1 4.2495 27.1204 3.9939 -1.17778 2.9951 1.58236 5.14709 -3.92415 0.528998 0.139501 -0.268755
196 1 7.3038 27.0489 0.862017 3.37805 -2.98627 4.17109 5.02445 -3.88116 -0.959452 -0.16726 -0.248663
295 1 5.73558 25.636 2.3329 2.43808 0.681994 -1.51506 5.36821 -3.92295 0.167077 -0.202572 0.158674
296 1 7.17419 27.0665 3.89939 0.309675 6.50899 -1.89168 0.271156 -3.87274 0.0921433 0.489111 -0.312525
297 1 8.56397 25.5256 2.3832 -0.134748 1.31643 -3.31811 0.367996 -3.89526 0.473636 0.00214489 0.234325
209 1 11.3537 28.3011 2.45573 -0.393176 -1.47754 0.78913 6.12465 -3.79253 0.252268 0.850857 -0.511426
198 1 9.95313 27.0869 0.641576 0.689763 -0.698924 -1.31982 5.31961 -3.81426 0.59614 -0.0915829 0.658097
200 1 13.0099 27.0067 0.69991 5.30296 -0.270392 0.651806 5.71872 -3.84342 -0.476188 0.279129 0.0916057
299 1 11.357 25.6421 2.42927 0.613569 6.18239 1.53807 6.46694 -3.78789 0.101335 -0.368175 0.182681
301 1 0.190771 0.330155 5.52294 0.5675 -0.168496 -2.46061 5.08835 -3.98286 0.12087 -0.754137 0.528837
302 1 1.52998 1.64637 7.44411 -1.42736 -3.15682 0.972455 0.33517 -3.93399 0.0288738 -0.000656018 -0.232204
303 1 2.87995 0.257353 5.6896 0.341516 -0.0404191 -2.60214 0.192774 -4.00246 0.134677 -0.44278 0.00424654
304 1 4.29008 1.6221 7.27223 -4.04083 -0.468429 4.02966 0.163708 -3.86837 -0.0915376 0.559413 0.0794942
311 1 0.149724 2.85167 5.68061 -1.74976 0.28104 0.763369 5.38291 -3.85017 -0.392448 1.11881 -0.300709
313 1 2.89377 2.99568 5.55785 0.148637 -0.416692 -0.495992 5.50269 -3.85647 -0.363017 0.259057 0.31173
305 1 5.63949 0.272746 5.68493 -2.6762 0.601797 -1.53878 5.43076 -3.81023 0.827171 -0.0591058 -0.663303
306 1 7.16827 1.7968 7.30403 -0.497955 1.38302 -0.554626 6.02954 -3.87193 -0.437588 -1.00347 0.322748
307 1 8.54451 0.339894 5.73299 2.06573 -1.47317 -0.377265 0.34445 -3.94311 -0.523326 -0.481198 -0.178403
315 1 5.88369 2.98404 5.59436 0.746495 3.22544 0.384377 5.49809 -3.95088 -1.10953 0.600381 0.138008
317 1 8.5575 3.091 5.59574 0.877774 1.33708 0.284955 5.77287 -4.07018 -0.373895 0.109266 -0.163872
208 1 9.93587 1.5992 4.04663 -2.11946 3.54369 -4.60115 0.124821 -4.0364 0.14607 0.191891 -0.188984
210 1 12.7168 1.62492 4.07738 1.93469 -2.84729 3.21644 0.36408 -3.90613 0.282934 0.233085 -0.0846877
308 1 9.85407 1.73124 7.25716 -3.32365 0.641461 0.348771 0.210403 -3.93881 0.301149 -0.192179 -0.226944
309 1 11.427 0.271834 5.73073 2.261 -0.338001 1.59023 0.164265 -3.91801 -0.110888 0.26403 -0.351935
310 1 12.8338 1.67333 7.28019 -2.12593 2.9352 -1.91821 0.17919 -3.91673 -0.263551 -0.50933 0.157054
319 1 11.2832 3.0542 5.6889 1.40137 -1.12676 -0.599603 0.111962 -3.97306 0.631053 -0.258296 -0.285474
212 1 1.5107 4.56417 4.05332 1.71349 1.1107 -0.37813 5.63095 -3.94205 0.0795586 -0.423194 0.19707
214 1 4.35594 4.34938 4.07297 -3.60792 0.888428 1.10906 5.12962 -3.90457 0.225413 0.581023 -0.633274
222 1 1.54559 7.23945 4.03006 2.60978 -1.28947 -2.65909 5.62789 -3.95888 -0.0379502 0.0586486 0.172565
224 1 4.45542 7.31972 4.06898 2.28078 -2.16034 3.83898 0.311758 -3.90045 -0.572977 0.477025 -0.72914
312 1 1.51633 4.46751 7.23223 6.58074 -1.87872 -2.48992 0.257491 -3.9303 0.16564 -0.357741 -0.159954
314 1 4.38482 4.47065 7.35664 1.38421 -0.500902 1.94911 6.00077 -3.83406 -0.283584 -0.413843 -0.117006
322 1 1.50912 7.24612 7.21729 2.77664 -2.04083 2.3912 0.115118 -3.90814 0.0350643 -0.349599 -0.0240612
323 1 3.05231 5.91185 5.60956 -1.31866 2.39502 -0.268551 0.269325 -3.92346 -0.712278 0.0187252 0.439692
324 1 4.3708 7.29584 7.24723 1.4459 0.563605 -1.51929 0.134489 -3.94209 -0.0212893 -0.545778 -0.448088
226 1 7.22143 7.27669 4.03307 -1.92098 2.73055 -2.00716 0.113652 -3.96697 0.199937 0.0455049 0.0498909
316 1 7.10763 4.57462 7.28844 2.31643 -3.52172 -0.258836 5.88479 -3.97293 -0.0121563 -0.991288 0.166359
325 1 5.76431 5.8264 5.54719 -2.43851 2.57701 -2.10025 0.277383 -3.94576 0.22931 -0.0091491 0.122886
326 1 7.19795 7.24786 7.19488 -1.71798 -0.00966545 0.572563 0.278794 -4.00058 -0.406144 0.56457 -0.223978
327 1 8.55272 5.78657 5.76492 -1.12912 -0.410511 1.0442 0.574 -3.92345 -0.0924899 0.277931 -0.635227
228 1 9.92162 7.27115 4.11856 0.0778168 -0.255412 1.79302 0.274224 -3.94117 0.405281 -0.112088 0.11819
321 1 14.1448 5.82456 5.65168 4.06995 0.134137 -0.309495 0.202367 -3.92432 0.230116 0.574535 -0.322468
318 1 9.98504 4.43593 7.25139 1.75132 -4.65897 3.2673 0.0911187 -3.976 0.0782275 0.0640584 0.601402
320 1 12.7757 4.48205 7.25868 1.89733 -3.11783 2.82706 0.189778 -3.90192 0.0738512 -0.850808 -0.206851
328 1 10.0129 7.28399 7.12457 2.65819 -0.927283 -2.4793 4.79747 -3.92245 -0.0430464 0.252013 0.29623
329 1 11.4291 5.87426 5.63317 1.9858 -1.38951 -0.786356 0.0773624 -3.94633 0.179571 0.0752607 -0.216031
330 1 12.8425 7.28945 7.28163 -1.97867 0.420953 -1.07444 0.098085 -4.00397 0.126023 0.166355 -0.138492
232 1 1.56015 10.1641 4.04788 2.12226 0.0705619 -0.681687 0.225601 -3.98367 -0.311234 0.0929256 -0.35891