ITEM: TIMESTEP
121500
ITEM: NUMBER OF ATOMS
2000
ITEM: BOX BOUNDS pp pp pp
1.0838953229856951e-01 1.4221610467701321e+01
2.1677906459713903e-01 2.8443220935402643e+01
-2.9959545581085911e+00 6.0315954558108153e+01
ITEM: ATOMS id type x y z vx vy vz c_csym c_peratom fx fy fz
2 1 1.62332 1.66863 -1.40507 -0.282889 -3.25185 -0.636516 0.279067 -3.99333 -0.432531 -0.250076 -0.620661
4 1 4.35789 1.61575 -1.48193 0.990702 -5.33602 3.45801 0.244885 -3.99576 -0.0118265 0.107961 0.375483
11 1 0.115605 3.14255 -2.94482 0.617832 -0.194419 3.50607 0.236697 -3.92352 0.157027 -0.419827 -0.438842
101 1 0.126621 0.284403 0.140764 -1.57173 1.46596 2.1275 0.152999 -4.02225 -0.283208 -0.0535574 -0.0318406
103 1 2.85007 0.270771 0.204244 0.287695 0.367304 -1.8153 0.246196 -3.88747 0.57087 0.124088 0.0731695
111 1 0.168447 3.08626 0.168943 -2.2925 0.592843 0.179022 0.134131 -3.99345 -0.190116 -0.255493 -0.060901
113 1 2.87763 3.13123 0.228046 -1.71434 2.42111 -1.1208 5.80866 -3.95494 -0.281954 0.223556 0.0792057
13 1 2.94284 3.10367 -2.9757 -0.0706192 -1.95523 0.774801 0.075083 -3.91161 -0.210555 -0.0401905 -0.0530829
6 1 7.17995 1.58532 -1.41227 -1.53139 -1.81767 -2.43971 0.232373 -3.97132 0.149983 0.440836 -0.318867
17 1 8.63608 3.25517 -2.92225 -1.24355 -0.0988133 -0.860341 5.213 -3.966 -0.37313 -0.72124 -0.0685765
105 1 5.90739 0.22905 0.170489 0.812795 -1.48127 -4.16198 0.295873 -3.9723 -0.364567 -0.446179 0.404907
115 1 5.79048 3.13764 0.15479 -0.932742 0.818202 0.0439582 0.18444 -3.94928 -0.3508 -0.502951 0.329045
117 1 8.60233 3.08029 0.240371 0.475293 0.415756 -1.302 0.174246 -3.94133 0.0898603 -0.105231 -0.570633
15 1 5.86915 3.09703 -2.93513 -1.1078 -3.23994 -0.243916 0.300989 -3.88943 -0.158857 0.399964 -0.013398
8 1 9.98472 1.71462 -1.53504 1.02028 2.64764 -1.65962 0.430432 -3.95361 -0.280701 -0.414797 0.874988
9 1 11.3244 0.287262 -2.88908 -0.628437 1.37052 0.162777 0.422514 -3.94866 0.648849 -0.189688 0.259104
10 1 12.8557 1.68831 -1.48136 -0.261261 2.58464 0.684826 0.143798 -3.93013 -0.16832 0.190701 0.0466675
109 1 11.3921 0.306018 0.138643 4.17545 -4.26001 3.01885 0.172187 -3.95183 0.0362073 -0.50943 -0.104137
119 1 11.4562 3.11085 0.0810598 -0.877516 0.612354 1.13148 0.16093 -3.99686 -0.268418 -0.687788 0.100925
12 1 1.52356 4.6359 -1.51388 1.18436 1.40208 1.05812 0.59803 -3.94242 0.100837 -0.332948 0.0112822
14 1 4.34915 4.42365 -1.3061 -0.761965 1.11821 -1.53086 0.27965 -4.00441 -0.0189988 0.277002 -0.714274
22 1 1.54026 7.32431 -1.48485 0.529166 1.27637 -0.648244 5.82635 -3.92209 -0.117255 -0.312149 0.755595
23 1 3.01689 5.92797 -2.96665 4.21453 0.286138 -0.65637 0.226612 -3.92364 -0.100639 -0.110911 -0.103877
24 1 4.35552 7.36387 -1.4104 0.718611 1.41969 0.425215 0.11193 -3.94472 -0.37031 0.313489 -0.0303247
121 1 0.132435 5.82793 0.161559 -2.35864 3.10392 -0.471262 0.193308 -3.93521 0.29904 0.228209 -0.0368441
123 1 3.01618 5.86763 0.262577 1.00139 1.8653 -1.24788 0.26341 -3.9799 -0.273918 -0.0845765 0.00972905
16 1 7.14135 4.5226 -1.32858 0.603539 0.154603 0.133915 0.163879 -3.97088 -0.0216614 -0.45177 -0.154456
25 1 5.70759 5.92495 -2.87087 -0.827089 1.1553 2.35682 5.06446 -4.01356 -0.0824326 -0.359086 -0.68694
26 1 7.1412 7.16975 -1.46295 -0.0337704 2.62343 0.778117 5.22313 -3.87766 -0.180756 0.802338 0.292312
125 1 5.74127 5.95799 0.207508 -0.136011 -2.75282 -0.154075 0.139128 -4.07462 0.230495 0.199801 -0.00341268
127 1 8.57446 5.88387 0.0638794 -1.51658 -3.67076 0.00771245 0.398532 -3.95597 0.0837856 -0.111398 0.0869333
18 1 10.0587 4.47472 -1.40884 2.01504 1.15568 0.108705 0.219393 -3.96913 -0.0772067 0.448308 0.406421
20 1 12.7939 4.54238 -1.44452 -0.022531 3.00342 -1.17168 0.0642437 -4.02237 -0.260815 0.0808024 -0.0604611
28 1 10.1169 7.35391 -1.31421 1.08986 -1.21663 1.80841 0.418639 -3.94539 -0.563257 -0.280717 0.154357
29 1 11.4127 5.98723 -2.97702 1.3822 1.47477 -0.555896 0.0544051 -3.99897 -0.293032 -0.5748 -0.360678
30 1 12.8531 7.28188 -1.34435 0.362699 -0.519128 0.486825 0.138565 -4.00758 -0.259336 0.229334 0.50684
129 1 11.3642 5.90889 0.215089 -0.995542 1.01394 2.2528 0.113231 -4.02107 0.433402 0.134467 -0.330492
32 1 1.48279 10.1923 -1.48218 2.66336 -1.18469 0.933482 0.243198 -4.0545 0.318428 -0.515222 0.00306179
34 1 4.32744 10.195 -1.4812 -3.42019 -1.92301 1.41173 0.201021 -3.96705 0.0108546 -0.0495405 0.464843
43 1 2.92107 11.628 -2.97213 2.17426 0.782241 3.50485 0.122737 -4.03212 0.0390019 -0.667324 0.093784
133 1 2.87707 8.77788 0.197017 -1.44944 0.975575 0.710255 0.0930309 -3.90946 0.151286 -0.357954 0.362999
141 1 0.146359 11.6297 0.0754904 -2.20193 -7.04944 -1.51669 0.337045 -4.02207 0.334121 0.289588 0.234449
143 1 2.92416 11.521 0.171932 -0.572232 1.1909 1.77002 0.167696 -4.03448 -0.200458 0.366162 -0.231678
36 1 7.17897 10.1662 -1.36015 0.10168 3.47717 0.174941 0.172644 -3.89056 0.212217 -0.371816 -0.151924
47 1 8.63625 11.4798 -2.88619 -1.46078 2.66256 0.234251 0.297213 -3.97337 -0.0715963 -0.31554 -0.275889
135 1 5.71447 8.72482 0.278099 -0.880733 0.590278 -0.109653 5.74367 -3.9351 0.382043 0.133644 -0.31914
137 1 8.61908 8.74613 0.103052 -4.19951 1.4167 -2.48788 0.379366 -3.99056 -0.192215 0.0486683 -0.471698
145 1 5.78797 11.4174 0.174692 0.913579 -3.10787 0.676852 5.75463 -3.94311 -0.263971 0.198004 0.303067
147 1 8.63173 11.5707 0.284009 -2.52053 -2.66134 -2.016 0.199612 -3.97842 -0.637152 0.566864 -0.532643
37 1 8.64539 8.6808 -2.85443 -0.410704 1.96136 0.795798 0.384245 -4.02945 -0.255784 0.275371 0.040241
41 1 14.1834 11.5242 -2.89037 -1.35835 -5.95404 3.83557 0.25768 -3.9886 -0.120165 0.231844 -0.00282531
131 1 14.189 8.78043 0.300338 -1.59748 2.05417 3.03081 0.427228 -3.90192 0.578308 -0.238652 -0.141397
38 1 10.1092 10.2499 -1.28728 0.647054 3.02786 -2.05404 0.500491 -3.98814 -0.569926 -0.683301 0.330543
39 1 11.3428 8.78317 -2.94015 2.80774 -0.622395 -1.00191 0.22436 -3.98424 0.167129 -0.0389273 0.448448
40 1 12.8549 10.1114 -1.26864 -1.75728 -0.634733 -0.267602 0.258125 -3.98563 0.0320049 -0.345964 -0.51501
139 1 11.4119 8.69776 0.264473 -0.425376 2.4171 -0.0430739 0.113117 -4.02468 0.04472 0.697452 -0.303445
149 1 11.4267 11.5446 0.265414 -0.904464 -0.906018 0.248794 0.1821 -3.99162 0.0450341 0.0102039 -0.16789
49 1 11.351 11.4979 -2.90964 -3.94296 -1.72452 -3.57845 0.146893 -3.94162 0.585756 0.00724491 -0.30704
42 1 1.60077 12.9976 -1.4998 -0.841826 -0.173751 0.753914 0.441303 -3.97313 -0.34343 -0.160916 0.446096
44 1 4.30049 12.9516 -1.51602 -1.17519 0.372824 -0.13007 6.11427 -4.04196 0.227713 -0.0145897 0.187772
52 1 1.58776 15.7356 -1.25456 -0.585983 1.26946 1.71295 5.21854 -3.85512 -0.483546 -0.0867969 -0.282409
54 1 4.38463 15.6552 -1.41397 0.269637 0.959657 1.9614 0.282048 -4.00879 -0.546707 0.201462 -0.0687089
153 1 2.9946 14.2978 0.185955 -3.03426 -0.361765 3.65674 0.168226 -3.93239 -0.353978 -0.390083 0.20405
46 1 7.13899 12.8477 -1.44025 -0.042375 -0.703018 -2.37022 5.27899 -3.94336 0.0230574 0.0972701 0.271558
56 1 7.08452 15.7726 -1.49848 0.19616 0.505449 -1.21975 0.267339 -4.01557 0.172366 -0.172801 -0.308055
155 1 5.76502 14.3443 0.125154 -0.699273 2.50818 -2.71856 0.104759 -3.97506 0.00105742 0.0417952 0.131118
157 1 8.53251 14.4644 0.214979 1.77519 1.9958 -4.01974 5.23162 -3.97848 0.0325759 -0.276321 0.465497
57 1 8.49816 14.3386 -2.84573 5.27468 2.46447 0.151665 0.538772 -3.87224 0.141244 0.105856 -0.94848
51 1 14.0057 14.3518 -2.99551 5.08997 3.62125 -2.07853 4.95044 -3.88868 0.926856 -0.396044 0.0571064
151 1 14.2009 14.4155 0.194925 -4.71089 2.01634 -0.85659 0.128012 -3.89213 0.118351 -0.379978 0.18734
48 1 9.93985 13.0563 -1.3861 2.86016 2.34417 0.701272 5.23584 -3.96447 0.427179 -0.62427 -0.0377463
50 1 12.7181 12.9904 -1.38899 0.559624 -1.36974 -0.820506 0.185332 -3.97173 -0.106582 -0.431003 0.107454
58 1 9.99316 15.7186 -1.40538 -3.3381 -1.51398 5.38263 0.180303 -4.00984 -0.118834 0.535688 0.120665
60 1 12.7967 15.7437 -1.39936 1.53771 1.90327 -4.70531 0.114524 -4.00981 -0.408923 -0.0592854 0.319357
159 1 11.3491 14.3264 0.248412 -0.265735 -1.65506 -3.98071 0.155091 -3.97857 0.421949 0.145447 -0.0209266
62 1 1.43944 18.5161 -1.36142 0.272627 0.831543 -0.200207 0.117567 -3.93462 0.0113141 0.257438 -0.184143
64 1 4.38586 18.6552 -1.35697 1.24428 1.0664 2.86252 5.36964 -3.9364 -0.550177 -0.610093 0.301342
163 1 2.94245 17.1558 0.0740592 0.341627 2.40032 0.506019 0.414425 -3.95829 0.309675 0.359286 -0.0912252
171 1 0.141802 19.9783 0.288107 -0.0590841 -1.37942 4.27312 0.178489 -4.04126 -0.408033 -0.217691 -0.447601
173 1 2.89555 19.9823 0.162521 0.785649 -1.23368 2.3689 0.15055 -4.014 -0.757021 -0.0264991 0.288407
66 1 7.24355 18.6165 -1.3578 2.75597 -4.35103 0.905848 5.66288 -4.03706 -0.671784 0.11944 0.118655
67 1 8.57677 17.1461 -2.97025 -4.30079 -3.56988 1.31798 0.0495999 -4.05673 -0.471887 -0.15066 -0.0848594
165 1 5.78304 17.093 0.115539 1.97311 1.99329 -0.167527 0.246186 -3.95991 -0.296996 0.0620734 -0.160724
167 1 8.56005 17.078 0.0589642 1.63712 1.01306 -0.622391 4.8114 -4.01105 -0.0839349 -0.00828964 0.588103
175 1 5.70632 20.007 0.190032 -3.42076 -2.85137 2.01629 0.137279 -3.96855 0.176083 0.12628 -0.21617
177 1 8.58858 20.043 0.407953 -1.05917 0.80188 -0.731301 1.04919 -3.94114 0.219132 -0.386702 -0.784021
75 1 5.71713 19.9361 -2.98595 -4.53949 -0.9021 2.29786 0.134357 -3.96695 -0.0793085 0.200493 -0.803364
65 1 5.67248 17.193 -2.94553 -1.31158 -3.63153 -0.620776 0.341423 -4.00744 0.0196263 -0.161022 -0.100537
161 1 14.1852 17.2046 0.293653 -8.06951 -0.86164 0.0732044 0.224811 -4.04194 -0.00212124 0.12265 -0.504241
68 1 9.83757 18.5862 -1.32986 1.01621 0.95189 3.77626 5.43835 -4.00933 0.375934 0.72568 0.0454335
70 1 12.7582 18.5098 -1.37275 -2.75978 -0.241021 0.901339 0.159193 -3.89268 0.0200052 0.536242 0.00846181
169 1 11.4357 17.1907 0.178851 -0.050047 0.778513 1.36961 0.112907 -3.95727 -0.664927 0.0981866 0.189519
179 1 11.4548 19.9395 0.269404 0.478562 4.61523 -0.247094 0.253933 -3.99658 -0.176636 0.16501 -0.0108441
69 1 11.3235 17.1806 -2.88386 2.51938 -0.439877 2.89062 0.227202 -3.96053 0.338678 -0.489465 -0.295964
71 1 14.189 20.001 -2.87679 -3.02828 1.71166 0.793185 0.313286 -3.85709 -0.242988 -0.344941 -0.249093
61 1 14.2026 17.0274 -2.91952 -2.79754 0.110739 5.17862 0.304432 -3.91935 0.110542 0.312655 -0.113673
72 1 1.54936 21.3951 -1.46038 2.3338 -3.4761 -2.56089 0.180215 -4.0399 -0.510942 0.00833723 -0.199614
74 1 4.24289 21.3195 -1.3231 -0.775897 2.76848 -0.309503 0.382365 -4.1043 0.282984 0.230751 -0.339071
82 1 1.5098 24.075 -1.53713 -0.197856 1.54937 -4.05427 0.300669 -4.01943 -0.154592 0.729242 -0.268701
84 1 4.24694 24.1216 -1.38207 1.75243 2.83472 -4.12876 0.403211 -3.93466 0.835811 0.693539 -0.0719692
181 1 0.128659 22.763 0.124385 -3.03311 -1.67311 -0.629939 0.0482133 -4.01928 -0.271708 -0.313711 -0.310492
183 1 2.89382 22.7594 0.0795194 0.572942 -1.11899 -0.365379 0.16994 -4.05738 0.154136 0.552395 0.600076
76 1 7.14056 21.2635 -1.40978 -0.691281 0.193514 1.05787 5.43989 -3.85967 -0.0699767 0.420391 0.254644
86 1 7.25436 24.2668 -1.407 -2.43118 3.29649 -1.15762 5.77715 -3.86771 0.146619 -0.519055 -0.421492
185 1 5.72509 22.8979 0.0848755 3.67767 -2.14848 -3.35625 0.477954 -3.99921 -0.054999 -0.582626 0.0299523
187 1 8.47118 22.692 0.265874 -0.732136 -0.532565 -1.73565 5.28389 -3.97313 -0.0119676 0.161611 -0.0961005
78 1 9.92402 21.3232 -1.46839 -2.14879 -1.2859 1.20999 0.230559 -3.98278 0.165281 0.306445 0.616898
80 1 12.7264 21.3466 -1.38923 -2.02506 0.894117 1.33119 0.0651466 -3.93803 0.241197 0.0119944 -0.348244
88 1 9.99398 24.1702 -1.36395 -1.34963 2.3224 -3.76156 0.211306 -3.9636 -0.366122 0.0930409 0.368873
90 1 12.8226 24.1983 -1.50333 -3.32555 -1.34099 0.789537 0.185662 -3.92316 -0.627533 -0.326508 0.393419
189 1 11.404 22.6532 0.105297 1.1462 2.87937 3.03823 0.292621 -3.89478 0.469798 0.560326 -0.198938
92 1 1.49183 27.0716 -1.42106 -1.55268 0.823337 -0.21304 0.0696613 -3.93515 -0.391377 -0.488209 0.0534405
93 1 2.95679 25.6072 -2.97523 -2.98218 -1.24306 2.03838 0.176179 -3.95013 0.234591 -0.0155932 0.112635
94 1 4.31233 27.0701 -1.25431 -2.42482 -0.468398 -1.32983 0.708113 -3.92871 -0.545067 -0.163614 -0.268962
193 1 2.87926 25.4829 0.0951437 -1.0862 0.475835 1.41936 0.42156 -3.93288 -0.0520142 0.659839 -0.287317
5 1 5.72241 28.2956 -2.9109 2.69086 -0.906142 0.0342517 5.14859 -3.97092 -0.202748 0.184503 -0.411216
107 1 8.62684 28.3911 0.208269 1.62718 -2.83475 -3.52836 0.301677 -4.03546 0.193659 1.03921 -0.354264
96 1 7.19496 27.0059 -1.41872 3.8854 -2.09663 -3.2721 0.0393312 -4.03017 -0.207169 0.231114 0.306547
195 1 5.7699 25.6353 0.110995 -1.7019 -1.17403 1.74296 0.139295 -3.90492 0.0286815 -0.119159 0.635459
197 1 8.65402 25.6862 0.166713 -0.592902 -0.620959 0.00800132 0.326247 -4.02711 -0.443358 -0.148037 -0.062909
7 1 8.51249 28.4072 -2.88864 0.305773 -1.36188 3.04787 0.353272 -3.96384 -0.22235 -0.24232 -0.167644
191 1 14.1954 25.5315 0.12073 -0.0885336 -4.4938 -0.48509 0.208883 -3.89966 0.219458 0.249493 -0.719668
98 1 9.85719 27.0277 -1.46541 2.60699 4.64685 0.62246 5.55831 -4.06634 0.797302 0.0677217 -0.306528
100 1 12.8111 27.1397 -1.4075 0.688756 2.41483 -3.36628 0.111452 -3.95335 -0.0993983 -0.0731639 -0.374907
199 1 11.3947 25.7747 0.168375 -1.77748 -0.753815 0.440887 0.586839 -3.90935 0.192173 -0.411327 -0.185412
99 1 11.3966 25.6653 -2.93019 -3.11862 -0.640777 0.494149 0.142361 -3.98787 0.00127339 -0.0486998 -0.208056
102 1 1.43258 1.58866 1.78059 7.38627 -3.29026 1.48818 0.298301 -4.03126 0.577332 0.478429 0.369925
104 1 4.40471 1.70471 1.68591 -2.62904 -0.431866 -2.50035 0.234822 -3.94652 -0.788068 0.225833 -0.110571
202 1 1.64591 1.56967 4.79717 2.02744 3.5456 -1.59179 4.69752 -4.03087 -0.468453 0.805851 -0.0482912
203 1 2.94499 0.259696 3.29045 -1.3304 -3.48688 0.0854903 0.130366 -4.0456 0.146196 0.400135 -0.409115
204 1 4.18458 1.68524 4.88235 -0.935437 1.48785 2.63114 4.63088 -3.98926 1.32195 -0.0422165 -0.110335
213 1 2.88677 3.08084 3.25451 -2.28947 -0.845795 -1.07431 0.362237 -4.01083 0.0276931 -0.0879116 -0.275519
106 1 7.15632 1.63052 1.67011 0.736671 -1.16949 0.0239501 0.24933 -4.0517 0.254031 0.520981 0.850553
205 1 5.64874 0.299036 3.14941 2.33469 0.995414 0.291621 4.71996 -3.90299 0.77323 -0.1774 0.883581
206 1 7.2548 1.68985 4.84195 -1.46106 -1.55409 1.7364 4.8738 -3.94645 -0.0286636 -0.276977 -0.305415
207 1 8.58474 0.236208 3.36999 1.31666 3.04051 1.49325 0.156029 -3.95662 0.11229 0.111454 -0.712465
215 1 5.78167 2.95842 3.42492 -1.49422 -2.50707 3.51511 0.534709 -3.95742 -0.260767 0.104013 -0.104267
217 1 8.60442 3.0921 3.31474 -1.80041 2.92479 -5.24384 0.122936 -4.01684 -0.472833 -0.265271 -0.0319944
201 1 14.2143 0.277593 3.3738 -0.76465 1.66164 -3.30675 0.325764 -3.99981 -0.293823 -0.170744 -0.0166573
211 1 14.1953 3.09372 3.43027 0.131749 -3.47244 0.658656 0.281482 -3.93826 0.340719 -0.715314 0.275779
108 1 9.98023 1.81548 1.80321 1.78008 -0.0382443 0.481447 5.69099 -3.89527 -0.0265531 -0.894226 0.100627
110 1 12.7567 1.63776 1.70888 0.143622 0.261967 0.471904 0.164011 -3.88041 -0.0107038 0.411713 0.318841
219 1 11.4042 3.08595 3.3407 2.96876 -3.6 -0.306264 0.0663047 -3.93418 0.00897265 -0.227369 0.267675
112 1 1.47335 4.44722 1.8681 -2.08488 5.53109 1.88305 0.248622 -3.94508 0.142545 0.68209 0.232134
114 1 4.45714 4.53943 1.88108 0.408107 -1.46821 1.68028 5.24643 -4.01689 -0.139336 -0.435626 -0.210431
122 1 1.5387 7.19477 1.83376 -2.178 2.10286 -1.52883 0.268129 -3.87844 -0.372402 -0.000362652 -0.0958157
124 1 4.30599 7.3213 1.81006 -1.70609 -0.894295 0.386355 0.160242 -3.94141 -0.117065 0.0846561 0.244305
223 1 3.00176 5.86832 3.38195 -2.9209 -3.41332 -1.19244 0.120345 -4.00308 0.123974 0.121136 0.417133
116 1 7.08446 4.43511 1.8105 -0.717838 -0.661302 1.69127 5.35422 -3.98931 0.245737 0.465502 -0.154307
126 1 7.33953 7.39572 1.78853 1.37971 -3.46356 0.697126 0.500558 -3.88246 -0.681802 -0.433925 -0.271577
216 1 7.15048 4.45322 4.79865 0.663868 1.20315 1.59813 0.352964 -4.04122 -0.233418 0.343148 0.177463
225 1 5.7941 6.05956 3.29308 0.299468 -1.75276 -1.18853 5.64375 -3.94928 -0.172252 -0.0896808 0.485326
227 1 8.61587 5.8789 3.29995 -0.532809 -0.371899 0.126652 0.138531 -3.96347 -0.248155 0.10366 0.281266
221 1 14.1524 5.86373 3.39664 0.796103 -1.93786 -0.0692733 0.13187 -3.99572 0.247098 0.455639 -0.418997
118 1 10.0291 4.4796 1.77187 -2.00022 0.251406 -1.34662 0.106153 -4.04225 -0.175682 -0.0766105 -0.316684
120 1 12.7727 4.51546 1.70521 -2.93314 -0.0391201 0.674702 0.119892 -3.99845 0.301649 -0.230318 0.396735
128 1 10.0124 7.32217 1.72108 -2.7644 2.28321 3.1472 0.136051 -4.02737 -0.699524 0.298209 0.0975999
130 1 12.7448 7.26336 1.72724 -1.8326 -3.86476 -3.53257 0.169821 -4.01309 0.238514 0.205629 0.416088
218 1 9.92391 4.44006 4.91598 2.54663 2.02038 1.45237 0.0894249 -4.01988 0.402973 0.281131 0.122818
220 1 12.7806 4.44772 4.90742 -0.879614 -1.25736 1.20844 0.065223 -3.89081 -0.173533 -0.0141007 0.21154
229 1 11.2652 5.91426 3.37556 0.58398 1.74186 -1.1864 0.304583 -4.01298 1.05958 0.326703 -0.0540061
230 1 12.8446 7.35538 4.82937 2.31232 0.678649 1.21522 0.280558 -3.9706 -0.0758674 -0.72813 0.293523
132 1 1.49806 10.2454 1.68579 0.926583 1.77752 2.20689 0.207503 -3.96695 0.178213 -0.647296 0.496656
134 1 4.33421 10.2257 1.82878 -1.95039 -2.01599 -1.69927 5.4773 -3.93619 0.109901 -0.647817 0.368385
233 1 2.86938 8.7146 3.39934 -0.683116 0.194601 5.31636 0.148025 -3.89247 0.0441057 -0.124045 0.014677
234 1 4.30212 10.2221 4.91383 -0.621179 0.157015 -0.123602 5.51342 -3.96395 0.338153 -0.089023 -0.15109
241 1 0.149986 11.5192 3.29457 -2.41095 0.904273 -0.0212207 0.0950336 -4.00743 -0.383461 -0.177952 0.114305
243 1 2.87755 11.525 3.2395 -0.234391 0.744033 0.670144 0.258904 -3.97891 0.164252 -0.18161 0.20002
136 1 7.34978 10.1327 1.80516 0.629619 0.98562 1.20116 5.07393 -4.03408 -0.675626 -0.0714967 -0.413005
235 1 5.87066 8.81598 3.26451 0.465343 -1.43871 1.4062 0.395575 -3.98066 -0.554769 -0.732781 -0.090608
237 1 8.63235 8.75913 3.49733 2.56455 0.935182 0.542097 0.39471 -4.07148 -0.105975 -0.254846 -0.270939
245 1 5.87987 11.5851 3.332 0.240801 -0.541356 -0.243051 0.42546 -3.97198 -0.266847 -0.213972 0.179864
247 1 8.6244 11.498 3.44609 0.432483 -3.51449 2.45946 0.20506 -4.05527 -0.092715 0.735112 0.0605432
231 1 14.2058 8.74973 3.29349 -0.187028 1.52542 1.17023 0.0877061 -4.0154 0.400997 -0.36691 0.114044
138 1 9.92992 10.142 1.73515 -1.64946 -2.47072 4.24093 5.32935 -4.06596 1.06056 -0.526324 0.351393
140 1 12.8378 10.2224 1.74369 -3.06779 0.590986 0.953237 0.20042 -4.02659 -0.685182 -0.413631 -0.00412671
239 1 11.364 8.67474 3.3012 1.07823 -1.10089 5.00007 0.102404 -4.01316 0.309475 -0.147069 -0.288326
240 1 12.788 10.0949 4.75617 0.473313 1.12475 -2.36237 0.403416 -3.91567 0.407821 0.185204 0.82067
249 1 11.3994 11.5636 3.43481 0.00818624 4.09037 -1.73351 0.263975 -4.00055 -0.483479 -0.509023 -0.300407
142 1 1.52181 13.0509 1.85124 -1.28477 -4.17543 2.9049 0.368971 -4.00974 -0.0567572 -0.314427 -0.12353
144 1 4.29805 12.8216 1.67493 1.81958 -2.20134 0.0142737 4.96709 -3.95767 0.730264 0.828874 0.0710881
152 1 1.51339 15.8576 1.82588 -0.669006 2.84052 -0.820189 5.44132 -4.07581 0.305808 -0.78487 -0.434782
154 1 4.25725 15.7179 1.73543 2.46855 -1.35996 -1.82568 0.310104 -3.96374 0.726941 0.269847 -0.324186
242 1 1.53992 12.9165 4.88141 0.280113 3.4737 -1.1283 0.126727 -4.02883 0.388156 0.067624 0.161292
244 1 4.24982 12.7782 4.90965 2.14938 -0.0921022 -0.749942 5.44208 -3.97274 0.126275 0.403097 -0.047497
251 1 0.128475 14.4623 3.39911 2.68999 -0.1114 0.508103 0.23212 -3.96862 -0.461128 -0.233041 -0.159295
252 1 1.63436 15.7834 4.78853 -3.12021 0.366244 0.726554 4.70538 -3.93185 0.0259745 -0.306738 0.277775
253 1 3.02926 14.3678 3.37235 0.643288 -2.70259 -2.00417 0.364986 -3.96158 0.148524 -0.306703 -0.291101
146 1 7.13468 12.9886 1.75067 1.04428 0.1527 -2.62964 0.133425 -3.85329 0.419489 -0.147404 -0.0129218
156 1 7.1141 15.8395 1.77923 -5.45427 -4.00032 2.42238 0.300336 -3.98294 -0.0646036 -0.122071 -0.124088
255 1 5.79332 14.3612 3.28445 0.949383 2.2935 -3.25327 0.185239 -3.96842 -0.442694 -0.154281 0.19069
256 1 7.19239 15.8423 4.81147 -0.861153 0.781607 -0.146585 0.398057 -4.01674 0.20073 -0.42603 0.276851
257 1 8.60857 14.4287 3.3898 -2.00567 3.54744 2.76289 0.0757767 -3.95955 -0.17953 -0.299355 -0.49634
148 1 10.0789 12.8625 1.85388 2.53119 -0.204599 1.59625 5.30483 -3.94352 -0.365334 0.304985 -0.338111
150 1 12.8144 12.9078 1.81797 0.842405 -1.04171 -0.584461 0.163368 -4.03927 0.285341 0.290032 0.194443
158 1 10.0599 15.8093 1.83582 1.95172 -4.28031 -2.67566 0.266402 -3.92538 -0.230295 -0.184681 0.0532152
160 1 12.7974 15.8078 1.73039 2.05154 2.79304 -0.0709358 0.205135 -3.9711 0.250372 -0.278229 0.3373
250 1 12.9049 12.9601 4.85942 1.45982 -1.9964 -1.75047 0.278468 -4.00707 -0.388496 0.0429463 0.364486
259 1 11.5154 14.2983 3.33035 2.36546 0.76793 -0.871017 0.269849 -4.01014 -0.653998 0.354943 -0.297156
162 1 1.61205 18.4318 1.76419 0.103087 0.473685 0.329909 5.1664 -3.97751 0.0768733 0.662211 -0.0315885
164 1 4.41893 18.6151 1.64397 -0.211573 3.22505 -5.20284 0.362739 -3.97847 -0.549331 -0.694374 0.107104
262 1 1.64124 18.6991 4.8977 -1.57751 0.894061 -4.43727 5.17173 -4.00532 -0.533307 -0.26915 0.213594
263 1 3.02324 17.1738 3.3163 -2.37006 -0.133771 0.32695 0.273499 -4.01942 -0.152079 0.546074 0.50058
271 1 0.239882 19.931 3.21968 -2.9132 -1.24747 -1.34561 0.617988 -3.99504 0.0697543 -0.109182 0.188397
273 1 3.06119 20.0027 3.33324 0.40391 -0.0741893 3.19324 5.55364 -3.98216 -0.120535 0.51517 -0.523191
166 1 7.16241 18.5363 1.74491 0.698547 0.150344 -2.49931 0.189485 -4.01438 0.174922 0.120241 0.141124
265 1 5.71847 17.1429 3.45886 -1.6126 -0.82668 -3.54668 0.465591 -3.99289 -0.209361 0.382303 -0.198121
266 1 7.25348 18.553 4.81278 1.95445 3.37989 -0.145865 5.06904 -3.91338 -0.772187 0.0628762 -0.000500986
267 1 8.63962 17.1234 3.25456 1.62128 1.24999 -1.44411 0.27568 -3.96246 -0.0247889 0.519292 0.435225
275 1 5.66392 19.9514 3.33985 0.0670137 -1.38317 -3.87798 5.23626 -3.98323 0.646108 0.415361 0.541465
277 1 8.52362 20.0544 3.32859 0.898333 -0.0775842 -0.479706 0.261459 -4.00984 0.482479 0.0898226 -0.201214
261 1 14.1769 17.1487 3.41365 3.22524 -0.724689 1.23685 0.361595 -4.02443 0.42316 0.172118 -0.175035
168 1 9.9888 18.5753 1.78988 -3.61858 0.233632 -1.83299 0.221038 -3.9443 -0.373363 -0.430396 0.31306
170 1 12.8038 18.6463 1.90111 0.900172 4.64776 -2.52583 0.347951 -4.01709 -0.0661994 -0.589159 -0.337339
269 1 11.4148 17.1891 3.52479 1.22914 3.37173 -1.05524 0.419976 -3.9785 0.243168 0.662311 -0.675564
270 1 12.909 18.7314 4.90322 -1.75346 -1.91228 -0.862528 5.46791 -3.95126 -0.610523 -0.131326 0.488606
279 1 11.3598 20.0486 3.30564 2.0114 -4.45816 0.994583 0.278842 -3.92511 -0.285086 0.0335437 0.0548286
172 1 1.47279 21.4257 1.79313 2.33301 -0.225112 2.95214 0.283626 -3.99397 0.922771 0.148785 0.253201
174 1 4.32705 21.4567 1.63238 -1.27528 -0.710527 -1.51037 0.287466 -3.99933 0.201968 0.110633 -0.0204354
182 1 1.5749 24.1646 1.74321 -0.784188 -3.79054 -2.16947 0.0655554 -4.01114 -0.427454 0.00423633 0.0786439
184 1 4.3073 24.238 1.69845 -0.587332 0.565944 -1.32797 0.146696 -3.99263 0.074515 -0.192942 -0.615591
272 1 1.50093 21.4332 4.81889 -1.3891 0.701157 2.48604 0.389826 -4.04889 0.0772443 -0.176409 0.487378
281 1 0.183488 22.7914 3.39592 -2.74019 0.616667 0.622568 0.16598 -3.94419 -0.47585 0.391301 -0.0484438
283 1 2.92311 22.8102 3.41456 1.18139 2.06881 4.32688 0.188651 -3.92849 0.617948 0.0064603 0.124745
176 1 7.06694 21.3141 1.81484 -3.95137 -1.5893 -1.01736 0.399221 -4.00878 -0.0977138 0.00900548 -0.538716
186 1 7.17879 24.1447 1.64642 2.78581 2.06017 1.88695 0.198951 -3.90896 0.410303 0.475798 0.0682124
285 1 5.85589 22.7635 3.19839 1.31531 1.02106 -0.50399 0.56934 -3.9248 -0.913325 0.524022 0.508961
287 1 8.6565 22.7436 3.24646 2.42 3.87829 -0.705154 4.96118 -4.08435 -0.203387 0.485751 0.0216217
178 1 9.99102 21.4199 1.70339 -1.13098 -1.50552 3.15931 0.256531 -4.03409 0.692016 -0.102145 0.0260136
180 1 12.8404 21.4228 1.84189 -0.471497 0.0061306 0.269058 0.311445 -4.10564 0.257544 -0.0217492 0.524253
188 1 10.0407 24.0693 1.59271 -1.30348 -2.27273 0.479064 4.86373 -3.89754 -0.510882 0.915733 0.172801
190 1 12.925 24.1389 1.71412 -1.55903 -2.12372 1.13416 5.62596 -3.88749 -0.90885 0.274987 0.499437
280 1 12.8739 21.3633 4.83358 1.61778 1.13426 1.57654 5.66045 -4.02159 -0.209216 0.10939 -0.212727
289 1 11.3072 22.8471 3.3342 -3.96248 4.07387 -0.259648 0.499063 -4.01018 0.25161 -0.100316 0.0393444
290 1 12.8777 24.1232 4.89207 1.06046 -1.98762 3.24564 0.240607 -4.00571 -0.165266 0.246038 0.209398
192 1 1.54582 26.9795 1.77747 0.832332 -0.820942 0.130328 5.27912 -4.0179 -0.276896 0.315606 0.0595099
194 1 4.33343 27.1078 1.71765 -1.61671 -3.20912 1.28134 0.254297 -3.97038 0.0156437 -0.256199 -0.646331
291 1 0.123486 25.6243 3.4568 -1.91934 -0.395923 -0.219087 0.406919 -3.9404 -0.131274 -0.285887 -0.0407234
292 1 1.58125 27.1181 4.80381 0.521729 -0.104332 -0.21211 0.28532 -4.03563 0.126098 -0.616418 0.112043
293 1 3.0799 25.6086 3.30502 2.80973 1.17343 -0.298043 5.88951 -3.92088 -0.467928 0.207528 0.145164
294 1 4.2495 27.1204 4.88429 -1.17778 2.9951 1.58236 0.255268 -3.9662 0.862777 0.0504416 -0.317318
196 1 7.3038 27.0489 1.86547 3.37805 -2.98627 4.17109 4.91535 -3.93142 -0.667929 0.276617 -0.288591
295 1 5.73558 25.636 3.28326 2.43808 0.681994 -1.51506 0.165038 -3.98196 0.0319199 0.0399126 0.313583
296 1 7.17419 27.0665 4.7932 0.309675 6.50899 -1.89168 0.259565 -3.91278 -0.0698508 0.402921 -0.0357435
297 1 8.56397 25.5256 3.33174 -0.134748 1.31643 -3.31811 0.358262 -3.971 0.909822 -0.178341 -0.0969473
209 1 11.3537 28.3011 3.40165 -0.393176 -1.47754 0.78913 5.93843 -3.86075 0.473255 0.556947 -0.648196
198 1 9.95313 27.0869 1.65298 0.689763 -0.698924 -1.31982 5.18084 -3.85525 0.357723 0.0508549 0.617715
200 1 13.0099 27.0067 1.70921 5.30296 -0.270392 0.651806 5.55053 -3.90718 -0.33519 0.345996 0.28789
299 1 11.357 25.6421 3.37615 0.613569 6.18239 1.53807 6.27917 -3.86944 0.402331 -0.313055 -0.362588
301 1 0.190771 0.330155 6.35814 0.5675 -0.168496 -2.46061 4.95236 -4.04016 -0.145486 -0.246973 0.427645
302 1 1.52998 1.64637 8.20996 -1.42736 -3.15682 0.972455 0.314611 -3.99271 -0.113456 -0.207092 0.140094
303 1 2.87995 0.257353 6.51879 0.341516 -0.0404191 -2.60214 0.188342 -4.04072 -0.188111 -0.647686 0.0937955
304 1 4.29008 1.6221 8.04428 -4.04083 -0.468429 4.02966 0.158692 -3.92665 0.079283 0.78087 0.478617
311 1 0.149724 2.85167 6.51012 -1.74976 0.28104 0.763369 5.24211 -3.91074 -0.267807 1.30959 -0.716924
313 1 2.89377 2.99568 6.39179 0.148637 -0.416692 -0.495992 0.363835 -3.90912 -0.00725544 0.372857 0.50718
305 1 5.63949 0.272746 6.51429 -2.6762 0.601797 -1.53878 5.10551 -3.86862 0.587301 0.462748 -0.699489
306 1 7.16827 1.7968 8.07494 -0.497955 1.38302 -0.554626 5.83356 -3.9009 -0.315936 -0.685895 0.142708
307 1 8.54451 0.339894 6.56061 2.06573 -1.47317 -0.377265 0.332738 -3.99772 -0.363465 -0.86712 0.284866
315 1 5.88369 2.98404 6.42699 0.746495 3.22544 0.384377 5.31324 -3.99312 -0.508292 0.13542 -0.127244
317 1 8.5575 3.091 6.42831 0.877774 1.33708 0.284955 0.0777383 -4.11213 -0.64251 0.10711 -0.178702
208 1 9.93587 1.5992 4.93512 -2.11946 3.54369 -4.60115 0.124599 -4.08086 0.519637 0.231425 0.186897
210 1 12.7168 1.62492 4.96476 1.93469 -2.84729 3.21644 0.359621 -3.95158 0.0204509 -0.297519 -0.387852
308 1 9.85407 1.73124 8.02976 -3.32365 0.641461 0.348771 0.208111 -3.97911 0.368819 -0.694346 -0.11797
309 1 11.427 0.271834 6.55843 2.261 -0.338001 1.59023 0.155786 -3.96707 -0.267006 0.230144 0.116429
310 1 12.8338 1.67333 8.05195 -2.12593 2.9352 -1.91821 0.173908 -3.95921 0.0562885 -0.576546 0.31699
319 1 11.2832 3.0542 6.51811 1.40137 -1.12676 -0.599603 0.110315 -4.016 0.516969 -0.26018 -0.133129
212 1 1.5107 4.56417 4.94157 1.71349 1.1107 -0.37813 5.47307 -4.00104 0.476695 -0.4696 -0.056858
214 1 4.35594 4.34938 4.96051 -3.60792 0.888428 1.10906 4.98465 -3.9629 -0.19062 0.556502 -0.356166
222 1 1.54559 7.23945 4.91915 2.60978 -1.28947 -2.65909 0.158864 -4.01387 -0.561875 0.0349657 0.155729
224 1 4.45542 7.31972 4.95666 2.28078 -2.16034 3.83898 0.304551 -3.95379 -0.651439 0.554828 -0.478765
312 1 1.51633 4.46751 8.00573 6.58074 -1.87872 -2.48992 0.251572 -3.99221 0.301508 -0.215038 -0.00368421
314 1 4.38482 4.47065 8.12565 1.38421 -0.500902 1.94911 0.162553 -3.90308 0.0870351 -0.517157 -0.602808
322 1 1.50912 7.24612 7.99133 2.77664 -2.04083 2.3912 0.112791 -3.97158 0.0423232 -0.293292 0.0298208
323 1 3.05231 5.91185 6.44163 -1.31866 2.39502 -0.268551 0.266027 -3.96857 -0.261508 0.119912 -0.131437
324 1 4.3708 7.29584 8.02018 1.4459 0.563605 -1.51929 0.129708 -3.99407 -0.0485043 -0.185093 -0.0513854
226 1 7.22143 7.27669 4.92205 -1.92098 2.73055 -2.00716 0.112263 -4.02687 -0.00563476 -0.101929 0.172471
316 1 7.10763 4.57462 8.05991 2.31643 -3.52172 -0.258836 0.361098 -4.01471 -0.243185 -0.712936 -0.229966
325 1 5.76431 5.8264 6.38152 -2.43851 2.57701 -2.10025 0.263925 -3.98666 0.0592965 0.241754 0.0693226
326 1 7.19795 7.24786 7.96973 -1.71798 -0.00966545 0.572563 0.267678 -4.04245 -0.171032 0.322048 -0.502218
327 1 8.55272 5.78657 6.59139 -1.12912 -0.410511 1.0442 0.54419 -3.97285 0.323022 0.230793 -0.471266
228 1 9.92162 7.27115 5.00445 0.0778168 -0.255412 1.79302 0.266572 -3.99845 -0.0607684 0.122174 0.531307
321 1 14.1448 5.82456 6.48223 4.06995 0.134137 -0.309495 0.200675 -3.97139 0.0914559 0.0976662 -0.0781375
318 1 9.98504 4.43593 8.0242 1.75132 -4.65897 3.2673 0.0893893 -4.01106 0.203681 0.475801 0.193018
320 1 12.7757 4.48205 8.03123 1.89733 -3.11783 2.82706 0.188224 -3.94532 0.169025 -0.880594 0.229148
328 1 10.0129 7.28399 7.90195 2.65819 -0.927283 -2.4793 0.518637 -3.97519 0.0380778 0.353226 0.253667
329 1 11.4291 5.87426 6.4644 1.9858 -1.38951 -0.786356 0.0748455 -3.99332 -0.00125317 -0.244855 -0.61052
330 1 12.8425 7.28945 8.05334 -1.97867 0.420953 -1.07444 0.0958624 -4.05306 -0.10309 -0.00963164 0.435815
232 1 1.56015 10.1641 4.93632 2.12226 0.0705619 -0.681687 0.218536 -4.02641 -0.645048 0.0464961 -0.305791