ITEM: TIMESTEP
39500
ITEM: NUMBER OF ATOMS
2000
ITEM: BOX BOUNDS pp pp pp
1.0838953229856951e-01 1.4221610467701321e+01
2.1677906459713903e-01 2.8443220935402643e+01
-6.8138632470253957e-01 5.8001386324702104e+01
ITEM: ATOMS id type x y z vx vy vz c_csym c_peratom fx fy fz
2 1 1.62332 1.66863 0.79318 -0.282889 -3.25185 -0.636516 0.277556 -4.09169 -0.263221 0.106515 -0.115827
4 1 4.35789 1.61575 0.721943 0.990702 -5.33602 3.45801 0.221739 -4.12705 -0.0599247 0.359826 0.34422
11 1 0.115605 3.14255 -0.633987 0.617832 -0.194419 3.50607 0.207564 -4.05125 -0.115546 -0.0924053 0.00684551
101 1 0.126621 0.284403 2.22599 -1.57173 1.46596 2.1275 0.15171 -4.09899 -0.332629 -0.287858 -0.137389
103 1 2.85007 0.270771 2.28483 0.287695 0.367304 -1.8153 0.238243 -3.99265 0.482883 0.0136679 -0.0654622
111 1 0.168447 3.08626 2.25211 -2.2925 0.592843 0.179022 0.130717 -4.13247 -0.126137 0.11753 -0.0130449
113 1 2.87763 3.13123 2.30689 -1.71434 2.42111 -1.1208 0.327766 -4.06701 0.0846088 0.097431 0.130996
13 1 2.94284 3.10367 -0.662609 -0.0706192 -1.95523 0.774801 0.0720398 -4.02027 -0.0933593 -0.097708 0.245575
6 1 7.17995 1.58532 0.786509 -1.53139 -1.81767 -2.43971 0.225781 -4.0908 -0.176842 0.621403 -0.154696
17 1 8.63608 3.25517 -0.613066 -1.24355 -0.0988133 -0.860341 4.94939 -4.054 -0.287172 -0.720006 -0.255271
105 1 5.90739 0.22905 2.25354 0.812795 -1.48127 -4.16198 0.293884 -4.07348 -0.829646 -0.410543 0.342329
115 1 5.79048 3.13764 2.23899 -0.932742 0.818202 0.0439582 0.180078 -4.04003 -0.392433 -0.575064 0.112427
117 1 8.60233 3.08029 2.31831 0.475293 0.415756 -1.302 0.15945 -4.05379 0.0614794 -0.00445125 -1.11129
15 1 5.86915 3.09703 -0.625006 -1.1078 -3.23994 -0.243916 0.289495 -4.0034 -0.573724 0.0961318 -0.225795
8 1 9.98472 1.71462 0.672707 1.02028 2.64764 -1.65962 0.378482 -4.04628 -0.480923 0.116311 1.17831
9 1 11.3244 0.287262 -0.582325 -0.628437 1.37052 0.162777 0.385876 -4.0419 1.1773 0.055824 -0.44368
10 1 12.8557 1.68831 0.722466 -0.261261 2.58464 0.684826 0.131714 -4.02563 -0.428974 0.0729481 0.505888
109 1 11.3921 0.306018 2.22402 4.17545 -4.26001 3.01885 0.16698 -4.07462 -0.526376 -0.544598 0.249754
119 1 11.4562 3.11085 2.17065 -0.877516 0.612354 1.13148 0.150474 -4.10164 -0.641691 -0.420007 -0.194513
12 1 1.52356 4.6359 0.692321 1.18436 1.40208 1.05812 0.560582 -4.04603 -0.240429 -0.70229 0.117893
14 1 4.34915 4.42365 0.884912 -0.761965 1.11821 -1.53086 0.269961 -4.09285 -0.282794 0.488196 -0.230863
22 1 1.54026 7.32431 0.719233 0.529166 1.27637 -0.648244 0.238374 -4.0307 -0.32446 -0.00492191 0.568349
23 1 3.01689 5.92797 -0.654224 4.21453 0.286138 -0.65637 0.221854 -4.0338 -0.113344 0.121709 -0.165387
24 1 4.35552 7.36387 0.788236 0.718611 1.41969 0.425215 0.105722 -4.0227 -0.336458 0.0451988 0.111177
121 1 0.132435 5.82793 2.24526 -2.35864 3.10392 -0.471262 0.183836 -4.0301 0.345491 0.248593 -0.234808
123 1 3.01618 5.86763 2.33889 1.00139 1.8653 -1.24788 0.253039 -4.11864 -0.268156 0.0987652 -0.197905
16 1 7.14135 4.5226 0.864075 0.603539 0.154603 0.133915 0.151574 -4.05189 0.294605 -0.517427 -0.115138
25 1 5.70759 5.92495 -0.565446 -0.827089 1.1553 2.35682 0.314617 -4.13101 -0.384316 -0.956039 -0.899346
26 1 7.1412 7.16975 0.739526 -0.0337704 2.62343 0.778117 4.92499 -3.93297 0.0356724 0.981987 0.837087
125 1 5.74127 5.95799 2.28785 -0.136011 -2.75282 -0.154075 0.137833 -4.18601 0.17113 0.245574 0.00851891
127 1 8.57446 5.88387 2.15472 -1.51658 -3.67076 0.00771245 0.355957 -4.08435 0.109232 -0.173801 1.0748
18 1 10.0587 4.47472 0.789685 2.01504 1.15568 0.108705 0.209708 -4.04983 -0.00525302 0.559295 -0.0163935
20 1 12.7939 4.54238 0.756611 -0.022531 3.00342 -1.17168 0.0590062 -4.11197 0.112864 -0.0591784 0.101971
28 1 10.1169 7.35391 0.877391 1.08986 -1.21663 1.80841 0.399686 -4.0208 -0.822703 -0.161445 -0.207342
29 1 11.4127 5.98723 -0.663834 1.3822 1.47477 -0.555896 0.053502 -4.11293 -0.718326 -0.626572 -0.438851
30 1 12.8531 7.28188 0.849463 0.362699 -0.519128 0.486825 0.134712 -4.12886 -0.41148 0.308621 -0.0174676
129 1 11.3642 5.90889 2.29488 -0.995542 1.01394 2.2528 0.107929 -4.10026 0.208651 -0.0466768 0.0444748
32 1 1.48279 10.1923 0.721711 2.66336 -1.18469 0.933482 0.218523 -4.1274 0.135415 -0.471372 0.240528
34 1 4.32744 10.195 0.722614 -3.42019 -1.92301 1.41173 0.18523 -4.06855 -0.133621 -0.627758 0.154155
43 1 2.92107 11.628 -0.6593 2.17426 0.782241 3.50485 0.113543 -4.09392 -0.329403 -0.681586 -0.263573
133 1 2.87707 8.77788 2.27813 -1.44944 0.975575 0.710255 0.0898351 -4.06047 0.0595992 -0.20233 0.273812
141 1 0.146359 11.6297 2.16549 -2.20193 -7.04944 -1.51669 0.301771 -4.11052 -0.15411 0.306143 0.653924
143 1 2.92416 11.521 2.25488 -0.572232 1.1909 1.77002 0.160081 -4.11743 -0.319767 -0.0449813 -0.413943
36 1 7.17897 10.1662 0.834814 0.10168 3.47717 0.174941 0.162492 -3.98553 -0.181324 -0.399305 0.288369
47 1 8.63625 11.4798 -0.579645 -1.46078 2.66256 0.234251 0.276931 -4.06513 -0.196989 0.138203 -0.244708
135 1 5.71447 8.72482 2.35328 -0.880733 0.590278 -0.109653 0.28125 -4.07586 0.589169 0.297054 -0.580859
137 1 8.61908 8.74613 2.19103 -4.19951 1.4167 -2.48788 0.351669 -4.101 -0.0628769 -0.0747661 -0.284281
145 1 5.78797 11.4174 2.25743 0.913579 -3.10787 0.676852 0.313835 -4.05716 -0.465742 0.826159 0.137507
147 1 8.63173 11.5707 2.35876 -2.52053 -2.66134 -2.016 0.183657 -4.08004 -0.0755933 0.6392 -0.896014
37 1 8.64539 8.6808 -0.550208 -0.410704 1.96136 0.795798 0.354725 -4.12968 -0.635034 0.178489 -0.650819
41 1 14.1834 11.5242 -0.583518 -1.35835 -5.95404 3.83557 0.236792 -4.05889 -0.423061 0.451706 -0.0480032
131 1 14.189 8.78043 2.37389 -1.59748 2.05417 3.03081 0.383306 -4.00881 0.960427 -0.213789 -0.240228
38 1 10.1092 10.2499 0.902357 0.647054 3.02786 -2.05404 0.491626 -4.06829 -0.946695 -0.698515 0.0380939
39 1 11.3428 8.78317 -0.629659 2.80774 -0.622395 -1.00191 0.223156 -4.08534 0.817915 0.146399 0.234075
40 1 12.8549 10.1114 0.919629 -1.75728 -0.634733 -0.267602 0.234918 -4.09093 0.16473 -0.270246 -0.468647
139 1 11.4119 8.69776 2.34065 -0.425376 2.4171 -0.0430739 0.107094 -4.09304 -0.270536 0.313463 -0.26823
149 1 11.4267 11.5446 2.34152 -0.904464 -0.906018 0.248794 0.17265 -4.06994 0.0858542 0.526994 -0.429327
49 1 11.351 11.4979 -0.601387 -3.94296 -1.72452 -3.57845 0.14254 -4.03875 0.462104 0.0977829 -0.514264
42 1 1.60077 12.9976 0.705376 -0.841826 -0.173751 0.753914 0.417211 -4.07478 -0.508496 0.400638 0.121523
44 1 4.30049 12.9516 0.690337 -1.17519 0.372824 -0.13007 0.106094 -4.1452 0.711923 0.0301629 0.502524
52 1 1.58776 15.7356 0.932686 -0.585983 1.26946 1.71295 0.655749 -3.99325 -0.98021 -0.327091 -0.677334
54 1 4.38463 15.6552 0.784928 0.269637 0.959657 1.9614 0.265313 -4.08267 -0.736838 0.604254 -0.350633
153 1 2.9946 14.2978 2.26787 -3.03426 -0.361765 3.65674 0.164134 -4.00505 -0.430937 0.279321 0.0702508
46 1 7.13899 12.8477 0.760569 -0.042375 -0.703018 -2.37022 0.221441 -4.03338 0.0790746 0.460454 0.357212
56 1 7.08452 15.7726 0.7066 0.19616 0.505449 -1.21975 0.243135 -4.08162 -0.125474 -0.0437635 -0.156014
155 1 5.76502 14.3443 2.21152 -0.699273 2.50818 -2.71856 0.102632 -4.08913 -0.147436 -0.3204 0.575354
157 1 8.53251 14.4644 2.29478 1.77519 1.9958 -4.01974 4.96207 -4.09792 0.178386 -0.530212 0.257344
57 1 8.49816 14.3386 -0.542148 5.27468 2.46447 0.151665 0.476874 -3.9921 0.207254 -0.194163 -0.99795
51 1 14.0057 14.3518 -0.680975 5.08997 3.62125 -2.07853 4.66518 -3.99774 1.21397 -0.127873 -0.319992
151 1 14.2009 14.4155 2.27619 -4.71089 2.01634 -0.85659 0.11934 -4.00844 -0.106653 -0.466649 0.122122
48 1 9.93985 13.0563 0.81076 2.86016 2.34417 0.701272 0.26762 -4.0768 0.338554 -0.797643 0.25276
50 1 12.7181 12.9904 0.808084 0.559624 -1.36974 -0.820506 0.173982 -4.07998 -0.136175 -0.220236 0.0116458
58 1 9.99316 15.7186 0.792895 -3.3381 -1.51398 5.38263 0.166624 -4.08093 -0.0379894 0.152921 0.179884
60 1 12.7967 15.7437 0.798475 1.53771 1.90327 -4.70531 0.110486 -4.07212 -0.295558 0.121779 0.554204
159 1 11.3491 14.3264 2.32576 -0.265735 -1.65506 -3.98071 0.150209 -4.07437 0.105143 0.42309 -0.250934
62 1 1.43944 18.5161 0.833636 0.272627 0.831543 -0.200207 0.115244 -4.03479 0.0219538 0.181376 -0.313259
64 1 4.38586 18.6552 0.837759 1.24428 1.0664 2.86252 5.03972 -4.02562 -0.177121 -0.581423 0.0953767
163 1 2.94245 17.1558 2.16416 0.341627 2.40032 0.506019 0.378781 -4.03459 0.578154 -0.0214347 0.211422
171 1 0.141802 19.9783 2.36256 -0.0590841 -1.37942 4.27312 0.165486 -4.12512 -0.207603 0.113972 -0.317194
173 1 2.89555 19.9823 2.24615 0.785649 -1.23368 2.3689 0.143682 -4.11489 -0.24438 -0.0181656 0.64202
66 1 7.24355 18.6165 0.836992 2.75597 -4.35103 0.905848 0.360974 -4.16286 -0.662775 -0.076562 0.219204
67 1 8.57677 17.1461 -0.65756 -4.30079 -3.56988 1.31798 0.0495284 -4.1472 0.0624305 -0.341642 -0.0869476
165 1 5.78304 17.093 2.20261 1.97311 1.99329 -0.167527 0.235573 -4.04931 -0.555316 0.210408 0.000365143
167 1 8.56005 17.078 2.15017 1.63712 1.01306 -0.622391 4.55662 -4.08176 0.135682 0.0999731 0.842834
175 1 5.70632 20.007 2.27165 -3.42076 -2.85137 2.01629 0.131615 -4.05924 0.419301 -0.0558185 0.0846447
177 1 8.58858 20.043 2.47364 -1.05917 0.80188 -0.731301 0.93485 -3.99863 -0.353738 -0.50471 -1.01374
75 1 5.71713 19.9361 -0.67211 -4.53949 -0.9021 2.29786 0.126088 -4.07128 -0.251763 0.305369 -0.815373
65 1 5.67248 17.193 -0.634648 -1.31158 -3.63153 -0.620776 0.32605 -4.10967 0.263546 0.0451739 -0.0094811
161 1 14.1852 17.2046 2.3677 -8.06951 -0.86164 0.0732044 0.208092 -4.13153 -0.0685181 -0.0450121 -0.342093
68 1 9.83757 18.5862 0.86289 1.01621 0.95189 3.77626 0.498923 -4.11592 0.660593 0.703028 0.196034
70 1 12.7582 18.5098 0.823131 -2.75978 -0.241021 0.901339 0.154355 -4.00934 0.305062 0.503446 -0.182341
169 1 11.4357 17.1907 2.26129 -0.050047 0.778513 1.36961 0.108248 -4.0683 -0.65209 -0.136762 0.203657
179 1 11.4548 19.9395 2.34522 0.478562 4.61523 -0.247094 0.243452 -4.09409 -0.370762 0.0172242 -0.249087
69 1 11.3235 17.1806 -0.577485 2.51938 -0.439877 2.89062 0.20633 -4.08112 0.148079 -0.299455 -0.911841
71 1 14.189 20.001 -0.570936 -3.02828 1.71166 0.793185 0.29317 -3.95828 -0.0904539 -0.660538 -0.204818
61 1 14.2026 17.0274 -0.610539 -2.79754 0.110739 5.17862 0.286526 -4.02488 0.270464 -0.0550328 -0.056573
72 1 1.54936 21.3951 0.741911 2.3338 -3.4761 -2.56089 0.171009 -4.13556 -0.120402 -0.336505 -0.179224
74 1 4.24289 21.3195 0.869159 -0.775897 2.76848 -0.309503 0.35155 -4.16841 0.433192 0.304974 -0.362943
82 1 1.5098 24.075 0.670773 -0.197856 1.54937 -4.05427 0.283817 -4.11742 0.0116872 0.655381 0.392971
84 1 4.24694 24.1216 0.814501 1.75243 2.83472 -4.12876 0.385698 -4.01715 0.837279 0.789867 -0.256078
181 1 0.128659 22.763 2.21081 -3.03311 -1.67311 -0.629939 0.0459707 -4.08313 0.251136 -0.140062 -0.100962
183 1 2.89382 22.7594 2.16922 0.572942 -1.11899 -0.365379 0.149936 -4.11361 0.0839183 0.323326 0.725765
76 1 7.14056 21.2635 0.788817 -0.691281 0.193514 1.05787 0.362163 -3.99576 -0.11876 0.592301 -0.122888
86 1 7.25436 24.2668 0.791389 -2.43118 3.29649 -1.15762 0.396507 -3.96152 -0.282582 -0.487222 -0.37894
185 1 5.72509 22.8979 2.17418 3.67767 -2.14848 -3.35625 0.462457 -4.08556 0.418129 -0.873061 -0.0486737
187 1 8.47118 22.692 2.34195 -0.732136 -0.532565 -1.73565 0.565253 -4.08081 0.210117 -0.230633 -0.704035
78 1 9.92402 21.3232 0.734485 -2.14879 -1.2859 1.20999 0.212077 -4.0903 0.228415 0.139378 0.678734
80 1 12.7264 21.3466 0.807863 -2.02506 0.894117 1.33119 0.0632286 -4.03609 0.723607 0.160591 -0.509944
88 1 9.99398 24.1702 0.831292 -1.34963 2.3224 -3.76156 0.193675 -4.10757 -0.0816634 0.0571009 -0.312241
90 1 12.8226 24.1983 0.702101 -3.32555 -1.34099 0.789537 0.175596 -4.05305 -0.935106 -0.129216 0.569735
189 1 11.404 22.6532 2.19311 1.1462 2.87937 3.03823 0.282354 -3.99787 -0.128694 0.987147 0.25536
92 1 1.49183 27.0716 0.778362 -1.55268 0.823337 -0.21304 0.0681602 -4.06183 0.0499784 -0.272737 0.0618026
93 1 2.95679 25.6072 -0.662178 -2.98218 -1.24306 2.03838 0.162027 -4.09294 -0.133353 0.207816 0.0300102
94 1 4.31233 27.0701 0.932914 -2.42482 -0.468398 -1.32983 0.637282 -4.00615 -0.621529 0.299499 -0.691491
193 1 2.87926 25.4829 2.1837 -1.0862 0.475835 1.41936 0.401987 -4.02046 -0.208243 0.508487 0.322758
5 1 5.72241 28.2956 -0.602548 2.69086 -0.906142 0.0342517 0.558786 -4.0606 0.137367 0.659297 -0.295858
107 1 8.62684 28.3911 2.28856 1.62718 -2.83475 -3.52836 0.289812 -4.11261 -0.45116 1.10032 -0.757502
96 1 7.19496 27.0059 0.780531 3.8854 -2.09663 -3.2721 0.036865 -4.10567 -0.406869 -0.0373679 0.284028
195 1 5.7699 25.6353 2.19839 -1.7019 -1.17403 1.74296 0.124013 -4.0605 0.0731117 -0.0308761 0.819514
197 1 8.65402 25.6862 2.25004 -0.592902 -0.620959 0.00800132 0.314335 -4.10519 -0.678625 -0.78432 0.307573
7 1 8.51249 28.4072 -0.581921 0.305773 -1.36188 3.04787 0.321773 -4.04557 0.0760074 0.360274 -0.99554
191 1 14.1954 25.5315 2.20742 -0.0885336 -4.4938 -0.48509 0.206428 -3.99144 0.288208 0.24513 -0.302029
98 1 9.85719 27.0277 0.737252 2.60699 4.64685 0.62246 0.387568 -4.14514 0.607689 -0.161561 -0.146678
100 1 12.8111 27.1397 0.790927 0.688756 2.41483 -3.36628 0.109459 -4.06567 0.375223 -0.307636 0.0386692
199 1 11.3947 25.7747 2.25158 -1.77748 -0.753815 0.440887 0.57757 -4.02112 0.222422 -0.586103 0.0877154
99 1 11.3966 25.6653 -0.620427 -3.11862 -0.640777 0.494149 0.136103 -4.08258 0.0568218 -0.106577 0.122698
102 1 1.43258 1.58866 3.74591 7.38627 -3.29026 1.48818 0.291973 -4.0914 0.394926 0.118186 0.299989
104 1 4.40471 1.70471 3.65816 -2.62904 -0.431866 -2.50035 0.22433 -4.08545 -0.942467 0.10134 -0.364077
202 1 1.64591 1.56967 6.54194 2.02744 3.5456 -1.59179 0.589164 -4.06406 -1.02954 1.17733 0.529101
203 1 2.94499 0.259696 5.14538 -1.3304 -3.48688 0.0854903 0.126708 -4.10668 0.155196 0.257614 -0.582534
204 1 4.18458 1.68524 6.62089 -0.935437 1.48785 2.63114 4.32596 -4.06815 1.22463 -0.851738 -0.39092
213 1 2.88677 3.08084 5.11207 -2.28947 -0.845795 -1.07431 0.340425 -4.11283 0.0512116 -0.0782001 0.28935
106 1 7.15632 1.63052 3.64351 0.736671 -1.16949 0.0239501 0.229128 -4.1381 0.419381 0.4426 0.819786
205 1 5.64874 0.299036 5.01466 2.33469 0.995414 0.291621 0.544727 -4.0007 0.801254 -0.337675 1.37024
206 1 7.2548 1.68985 6.58344 -1.46106 -1.55409 1.7364 0.347238 -4.03379 -0.687649 -0.904958 0.165781
207 1 8.58474 0.236208 5.2191 1.31666 3.04051 1.49325 0.142616 -4.05251 0.541044 0.444877 -0.737184
215 1 5.78167 2.95842 5.27002 -1.49422 -2.50707 3.51511 0.503404 -4.05258 -0.0609356 0.409321 -0.219713
217 1 8.60442 3.0921 5.16789 -1.80041 2.92479 -5.24384 0.120628 -4.08815 -0.653821 -0.0746222 0.228046
201 1 14.2143 0.277593 5.22263 -0.76465 1.66164 -3.30675 0.309778 -4.10212 0.138672 0.117477 -0.0456861
211 1 14.1953 3.09372 5.27498 0.131749 -3.47244 0.658656 0.252891 -4.07548 0.0133129 -0.76266 -0.570886
108 1 9.98023 1.81548 3.76688 1.78008 -0.0382443 0.481447 5.33659 -4.00459 0.244734 -1.49599 0.0161867
110 1 12.7567 1.63776 3.67945 0.143622 0.261967 0.471904 0.156735 -3.99255 0.332714 0.206233 0.281165
208 1 9.93587 1.5992 6.6698 -2.11946 3.54369 -4.60115 0.124188 -4.17589 0.267901 0.378509 -0.34791
210 1 12.7168 1.62492 6.69727 1.93469 -2.84729 3.21644 0.351388 -4.04299 0.262249 -0.0591788 -0.357471
219 1 11.4042 3.08595 5.19196 2.96876 -3.6 -0.306264 0.0650667 -4.03732 0.045963 -0.367785 0.289644
112 1 1.47335 4.44722 3.82703 -2.08488 5.53109 1.88305 0.227329 -4.02625 0.0596949 0.880416 -0.300428
114 1 4.45714 4.53943 3.83906 0.408107 -1.46821 1.68028 0.428329 -4.09459 -0.310227 -0.561555 -0.430248
122 1 1.5387 7.19477 3.7952 -2.178 2.10286 -1.52883 0.263978 -3.99167 -0.600791 0.428888 -0.0667515
124 1 4.30599 7.3213 3.77323 -1.70609 -0.894295 0.386355 0.156391 -3.99063 -0.033151 0.434316 -0.120235
212 1 1.5107 4.56417 6.67578 1.71349 1.1107 -0.37813 0.378282 -4.10077 0.0275589 -0.331093 0.0569874
214 1 4.35594 4.34938 6.69333 -3.60792 0.888428 1.10906 4.71696 -4.0912 0.0817631 0.576568 -0.643908
222 1 1.54559 7.23945 6.655 2.60978 -1.28947 -2.65909 0.15537 -4.11169 -0.587663 -0.297053 -0.21906
223 1 3.00176 5.86832 5.23019 -2.9209 -3.41332 -1.19244 0.119486 -4.10917 0.0782338 -0.0560301 0.123024
224 1 4.45542 7.31972 6.68976 2.28078 -2.16034 3.83898 0.291245 -4.05104 -0.884774 0.336587 -0.560843
116 1 7.08446 4.43511 3.77364 -0.717838 -0.661302 1.69127 5.03106 -4.10299 0.616356 0.63959 -0.274733
126 1 7.33953 7.39572 3.75327 1.37971 -3.46356 0.697126 0.484933 -3.99541 -0.587153 -0.577724 -0.0956034
216 1 7.15048 4.45322 6.54331 0.663868 1.20315 1.59813 0.322314 -4.13704 0.214128 0.362239 0.34469
225 1 5.7941 6.05956 5.14782 0.299468 -1.75276 -1.18853 0.614363 -4.04984 0.0463974 -0.432835 0.087382
226 1 7.22143 7.27669 6.65769 -1.92098 2.73055 -2.00716 0.1097 -4.13983 0.238891 0.211084 0.205069
227 1 8.61587 5.8789 5.15418 -0.532809 -0.371899 0.126652 0.128321 -4.04841 -0.381349 0.00987887 0.0930714
221 1 14.1524 5.86373 5.2438 0.796103 -1.93786 -0.0692733 0.123994 -4.07573 -0.0546699 0.460311 -0.689554
118 1 10.0291 4.4796 3.73783 -2.00022 0.251406 -1.34662 0.0989327 -4.13092 -0.108254 0.260229 -0.225984
120 1 12.7727 4.51546 3.67605 -2.93314 -0.0391201 0.674702 0.107757 -4.11242 0.276415 -0.361972 0.502416
128 1 10.0124 7.32217 3.69075 -2.7644 2.28321 3.1472 0.12263 -4.11196 -0.516349 -0.0152515 0.438537
130 1 12.7448 7.26336 3.69647 -1.8326 -3.86476 -3.53257 0.156478 -4.11582 0.71699 -0.0159942 0.0214809
218 1 9.92391 4.44006 6.65206 2.54663 2.02038 1.45237 0.0874808 -4.12383 0.47547 0.337256 -0.10803
220 1 12.7806 4.44772 6.64413 -0.879614 -1.25736 1.20844 0.062203 -4.00655 -0.293131 -0.21334 0.233403
228 1 9.92162 7.27115 6.73406 0.0778168 -0.255412 1.79302 0.252443 -4.09841 0.296945 0.225358 0.0812903
229 1 11.2652 5.91426 5.22427 0.58398 1.74186 -1.1864 0.297418 -4.09694 1.07976 -0.0287184 -0.0627131
230 1 12.8446 7.35538 6.57178 2.31232 0.678649 1.21522 0.271591 -4.06595 -0.477638 -1.01151 -0.00826605
132 1 1.49806 10.2454 3.65804 0.926583 1.77752 2.20689 0.19874 -4.03961 -0.189378 -0.547431 0.479869
134 1 4.33421 10.2257 3.79058 -1.95039 -2.01599 -1.69927 0.272196 -4.03796 0.0748125 -0.484201 0.251422
232 1 1.56015 10.1641 6.67091 2.12226 0.0705619 -0.681687 0.205493 -4.10982 -0.679177 -0.0404559 -0.228409
233 1 2.86938 8.7146 5.24631 -0.683116 0.194601 5.31636 0.14347 -4.05154 0.412343 0.133887 -0.454503
234 1 4.30212 10.2221 6.65006 -0.621179 0.157015 -0.123602 5.19073 -4.09256 0.765791 -0.517947 0.174824
241 1 0.149986 11.5192 5.14919 -2.41095 0.904273 -0.0212207 0.0906887 -4.07798 0.164872 -0.0487748 0.173281
243 1 2.87755 11.525 5.09816 -0.234391 0.744033 0.670144 0.235472 -4.04841 0.0991657 -0.175881 0.329041
136 1 7.34978 10.1327 3.76869 0.629619 0.98562 1.20116 0.360034 -4.09811 -0.979616 0.369021 -0.101551
235 1 5.87066 8.81598 5.12133 0.465343 -1.43871 1.4062 0.369725 -4.08458 -0.586485 -0.526504 -0.0825724
236 1 7.13391 10.1574 6.67677 2.36863 -0.429749 -0.449581 0.256634 -4.12902 -0.149372 0.37592 0.137137
237 1 8.63235 8.75913 5.33713 2.56455 0.935182 0.542097 0.348575 -4.13341 0.0583955 0.242499 -0.343013
245 1 5.87987 11.5851 5.18389 0.240801 -0.541356 -0.243051 0.422704 -4.07164 -0.121155 -0.384806 0.0317294
247 1 8.6244 11.498 5.28964 0.432483 -3.51449 2.45946 0.190328 -4.13758 -0.26664 0.375793 -0.0883911
231 1 14.2058 8.74973 5.1482 -0.187028 1.52542 1.17023 0.0853408 -4.1315 0.719419 -0.254738 0.258416
138 1 9.92992 10.142 3.7038 -1.64946 -2.47072 4.24093 5.03128 -4.15252 0.79861 -0.340265 0.575804
140 1 12.8378 10.2224 3.71171 -3.06779 0.590986 0.953237 0.1886 -4.13806 -0.651381 -0.150521 0.552724
238 1 10.0462 10.0877 6.6761 4.00462 1.03455 -0.403308 0.138746 -4.042 0.0727137 0.0677373 0.531984
239 1 11.364 8.67474 5.15534 1.07823 -1.10089 5.00007 0.0963749 -4.11033 0.130105 0.175693 -0.024683
240 1 12.788 10.0949 6.50393 0.473313 1.12475 -2.36237 0.360287 -4.00505 0.0245916 0.749214 1.26365
249 1 11.3994 11.5636 5.27919 0.00818624 4.09037 -1.73351 0.238353 -4.09226 -0.246347 -0.37091 -0.402686
142 1 1.52181 13.0509 3.8114 -1.28477 -4.17543 2.9049 0.340336 -4.13359 0.251356 -0.356502 -0.619336
144 1 4.29805 12.8216 3.64798 1.81958 -2.20134 0.0142737 4.70646 -4.07119 0.599301 1.07241 0.165619
152 1 1.51339 15.8576 3.78789 -0.669006 2.84052 -0.820189 5.11212 -4.16973 0.518977 -0.804382 -0.48341
154 1 4.25725 15.7179 3.70406 2.46855 -1.35996 -1.82568 0.3039 -4.06934 0.431802 0.0841151 -0.467361
242 1 1.53992 12.9165 6.62001 0.280113 3.4737 -1.1283 0.115925 -4.15362 0.229432 -0.00845113 0.286736
244 1 4.24982 12.7782 6.64619 2.14938 -0.0921022 -0.749942 5.09709 -4.09481 -0.0329827 0.610695 -0.195669
251 1 0.128475 14.4623 5.24609 2.68999 -0.1114 0.508103 0.220249 -4.07086 0.0470229 -0.0983872 0.0681963
252 1 1.63436 15.7834 6.53392 -3.12021 0.366244 0.726554 0.450071 -4.02204 0.0382707 -0.250581 0.741826
253 1 3.02926 14.3678 5.22129 0.643288 -2.70259 -2.00417 0.349648 -4.0354 0.0551823 0.0765296 -0.125234
254 1 4.32401 15.7314 6.73827 -3.29084 -1.84392 -1.68306 0.265598 -4.03663 -0.0235736 0.343089 -0.621649
146 1 7.13468 12.9886 3.71818 1.04428 0.1527 -2.62964 0.131247 -3.94297 0.82523 -0.353134 0.420212
156 1 7.1141 15.8395 3.74465 -5.45427 -4.00032 2.42238 0.287047 -4.05511 0.140401 0.077269 -0.284235
246 1 7.17912 12.9922 6.69006 0.991656 -1.68864 -0.448699 0.134962 -4.03538 0.221658 -0.493159 0.104213
255 1 5.79332 14.3612 5.13982 0.949383 2.2935 -3.25327 0.174976 -4.11687 -0.473618 -0.226438 0.690081
256 1 7.19239 15.8423 6.55518 -0.861153 0.781607 -0.146585 0.365948 -4.06009 0.154415 -0.642223 0.179441
257 1 8.60857 14.4287 5.23746 -2.00567 3.54744 2.76289 0.0720958 -4.0828 -0.311241 -0.711707 -0.751326
148 1 10.0789 12.8625 3.81385 2.53119 -0.204599 1.59625 0.296893 -4.03897 -0.506027 0.711461 -0.0860702
150 1 12.8144 12.9078 3.78056 0.842405 -1.04171 -0.584461 0.154571 -4.13852 0.710393 0.609926 0.0990109
158 1 10.0599 15.8093 3.79711 1.95172 -4.28031 -2.67566 0.249015 -4.05219 0.24265 -0.334584 0.134935
160 1 12.7974 15.8078 3.69938 2.05154 2.79304 -0.0709358 0.184291 -4.08751 0.132585 -0.145758 0.865354
248 1 10.001 13.0598 6.69495 1.15591 3.93167 -3.97146 0.325673 -4.04289 0.25348 0.0565298 0.132497
250 1 12.9049 12.9601 6.59963 1.45982 -1.9964 -1.75047 0.251968 -4.09894 0.144802 0.01979 0.345417
258 1 10.0849 15.781 6.65758 3.15439 -2.57917 -3.22034 0.183907 -4.12558 -0.188329 -0.402961 -0.0610141
259 1 11.5154 14.2983 5.18237 2.36546 0.76793 -0.871017 0.265713 -4.09383 -0.621545 0.760635 0.298264
260 1 12.7221 15.7462 6.6848 1.07372 0.97037 -2.70378 0.52567 -4.0155 0.947986 -0.188027 0.501383
162 1 1.61205 18.4318 3.73071 0.103087 0.473685 0.329909 4.82339 -4.08185 -0.0249926 0.811612 -0.0338976
164 1 4.41893 18.6151 3.61928 -0.211573 3.22505 -5.20284 0.334475 -4.05818 -0.220618 -0.95977 0.38298
262 1 1.64124 18.6991 6.63511 -1.57751 0.894061 -4.43727 0.342355 -4.11361 -0.965974 -0.755138 0.254126
263 1 3.02324 17.1738 5.16934 -2.37006 -0.133771 0.32695 0.256739 -4.10108 -0.189145 0.0483958 0.462777
264 1 4.25569 18.5351 6.77621 2.99979 1.41468 -0.253245 0.470536 -4.06062 0.760537 0.090453 -0.536725
271 1 0.239882 19.931 5.07979 -2.9132 -1.24747 -1.34561 0.581351 -4.06621 0.0977621 0.321795 0.552135
273 1 3.06119 20.0027 5.18504 0.40391 -0.0741893 3.19324 0.353852 -4.10206 -0.144614 0.0588012 -0.152905
166 1 7.16241 18.5363 3.71285 0.698547 0.150344 -2.49931 0.167714 -4.1608 -0.216287 -0.312632 -0.197413
265 1 5.71847 17.1429 5.30147 -1.6126 -0.82668 -3.54668 0.411362 -4.09854 -0.572654 0.362593 -0.835454
266 1 7.25348 18.553 6.5564 1.95445 3.37989 -0.145865 0.532692 -4.02095 -0.813646 0.221106 0.126113
267 1 8.63962 17.1234 5.11212 1.62128 1.24999 -1.44411 0.256118 -4.05105 -0.28102 0.0593608 0.882078
275 1 5.66392 19.9514 5.19116 0.0670137 -1.38317 -3.87798 0.296471 -4.09213 0.650167 0.0279023 0.412404
277 1 8.52362 20.0544 5.18073 0.898333 -0.0775842 -0.479706 0.250392 -4.12412 0.448214 0.335342 0.417878
261 1 14.1769 17.1487 5.25957 3.22524 -0.724689 1.23685 0.350215 -4.1216 0.260888 0.178018 0.195328
168 1 9.9888 18.5753 3.75452 -3.61858 0.233632 -1.83299 0.195787 -4.0648 -0.0258801 -0.57558 -0.29126
170 1 12.8038 18.6463 3.85763 0.900172 4.64776 -2.52583 0.317174 -4.09167 -0.353168 -0.845432 -0.514269
268 1 9.90461 18.5053 6.75142 4.57801 -0.241298 0.328247 0.291928 -4.0439 0.632243 0.230398 -0.38613
269 1 11.4148 17.1891 5.36259 1.22914 3.37173 -1.05524 0.373414 -4.05617 0.743073 0.746033 -1.15508
270 1 12.909 18.7314 6.64023 -1.75346 -1.91228 -0.862528 0.525665 -4.06757 -0.394348 -0.17116 0.458309
279 1 11.3598 20.0486 5.15946 2.0114 -4.45816 0.994583 0.255302 -4.04541 -0.227437 -0.386627 0.228959
172 1 1.47279 21.4257 3.75754 2.33301 -0.225112 2.95214 0.267667 -4.09208 0.558656 -0.0794317 -0.187984
174 1 4.32705 21.4567 3.60854 -1.27528 -0.710527 -1.51037 0.263211 -4.09317 -0.0326428 -0.0862594 0.373349
182 1 1.5749 24.1646 3.71126 -0.784188 -3.79054 -2.16947 0.0644068 -4.13831 -0.348666 0.525235 0.55671
184 1 4.3073 24.238 3.66978 -0.587332 0.565944 -1.32797 0.142688 -4.07885 0.368885 -0.274818 -0.108223
272 1 1.50093 21.4332 6.56206 -1.3891 0.701157 2.48604 0.357385 -4.12727 0.167385 -0.630744 0.619731
274 1 4.4257 21.4489 6.71921 2.59471 -0.91757 -0.537123 0.256267 -4.02833 -0.0510782 -0.172516 -0.461606
281 1 0.183488 22.7914 5.24314 -2.74019 0.616667 0.622568 0.148118 -4.007 -0.258421 0.215533 -0.764154
282 1 1.52472 24.1909 6.72692 -1.23117 0.365724 -0.651941 0.157302 -4.09939 0.637344 0.17882 -0.404381
283 1 2.92311 22.8102 5.26042 1.18139 2.06881 4.32688 0.167226 -4.0412 0.763419 -0.183841 -0.512091
284 1 4.42474 24.2671 6.69541 -2.88227 1.45219 3.65201 0.159785 -4.03143 0.269622 -0.488679 -0.517341
176 1 7.06694 21.3141 3.77766 -3.95137 -1.5893 -1.01736 0.387219 -4.063 0.403548 0.0950638 -0.558406
186 1 7.17879 24.1447 3.62155 2.78581 2.06017 1.88695 0.186214 -3.99962 -0.239803 1.01657 0.158858
276 1 7.10716 21.4372 6.70859 2.60993 -1.18025 -2.38511 0.236563 -4.05817 0.201317 -0.0443194 -0.395375
285 1 5.85589 22.7635 5.06005 1.31531 1.02106 -0.50399 0.524789 -4.024 -1.13925 1.34789 1.24673
286 1 7.16944 24.2408 6.68954 1.08031 -1.08147 0.839848 0.269241 -4.04985 -0.191889 -0.577252 -0.714362
287 1 8.6565 22.7436 5.1046 2.42 3.87829 -0.705154 0.327366 -4.21229 -0.870669 0.687114 0.466464
178 1 9.99102 21.4199 3.67436 -1.13098 -1.50552 3.15931 0.235082 -4.07824 0.892635 -0.19832 0.262618
180 1 12.8404 21.4228 3.80274 -0.471497 0.0061306 0.269058 0.283656 -4.19807 -0.0793903 -0.0186266 0.150745
188 1 10.0407 24.0693 3.57177 -1.30348 -2.27273 0.479064 0.796328 -3.97823 0.0433238 1.21626 -0.0943024
190 1 12.925 24.1389 3.68431 -1.55903 -2.12372 1.13416 0.398512 -4.01149 -0.690941 0.0136507 0.186997
278 1 9.94955 21.4304 6.75805 1.38589 -0.978514 1.96516 0.31116 -3.99934 -0.0246317 -0.769185 -0.857186
280 1 12.8739 21.3633 6.57568 1.61778 1.13426 1.57654 0.284999 -4.15388 0.12193 0.0178954 -0.11811
288 1 10.0194 24.1956 6.73921 2.68269 2.22443 1.78439 0.371589 -4.01839 -0.399946 0.227346 -0.154083
289 1 11.3072 22.8471 5.18593 -3.96248 4.07387 -0.259648 0.484496 -4.11152 0.290969 -0.0935996 0.213936
290 1 12.8777 24.1232 6.62989 1.06046 -1.98762 3.24564 0.234967 -4.11106 -0.404642 0.248764 0.295808
192 1 1.54582 26.9795 3.74303 0.832332 -0.820942 0.130328 0.143985 -4.16794 0.0834258 0.244931 0.107721
194 1 4.33343 27.1078 3.68758 -1.61671 -3.20912 1.28134 0.248398 -4.0769 0.0607097 -0.52525 -0.735166
291 1 0.123486 25.6243 5.29956 -1.91934 -0.395923 -0.219087 0.364013 -4.01118 0.241783 -0.0632667 -0.570959
292 1 1.58125 27.1181 6.54809 0.521729 -0.104332 -0.21211 0.256439 -4.14507 0.146493 -0.853102 0.264417
293 1 3.0799 25.6086 5.15888 2.80973 1.17343 -0.298043 0.378503 -4.01335 -0.948976 0.119123 0.637874
294 1 4.2495 27.1204 6.62269 -1.17778 2.9951 1.58236 0.249744 -4.06429 0.547696 0.0119105 -0.0536139
196 1 7.3038 27.0489 3.82459 3.37805 -2.98627 4.17109 0.562827 -4.02654 -0.802653 0.0544944 -0.596337
295 1 5.73558 25.636 5.13871 2.43808 0.681994 -1.51506 0.152789 -4.11178 0.421684 0.244473 0.200982
296 1 7.17419 27.0665 6.53825 0.309675 6.50899 -1.89168 0.238162 -3.98358 0.0773202 0.749398 0.118291
297 1 8.56397 25.5256 5.18365 -0.134748 1.31643 -3.31811 0.340289 -4.12109 0.914745 0.416509 -0.185183
209 1 11.3537 28.3011 5.24845 -0.393176 -1.47754 0.78913 5.59458 -3.98754 0.422543 0.789237 -0.942997
198 1 9.95313 27.0869 3.62764 0.689763 -0.698924 -1.31982 0.291621 -3.91871 0.439196 -0.200061 0.926265
200 1 13.0099 27.0067 3.67976 5.30296 -0.270392 0.651806 5.23998 -4.00776 -0.729056 0.162348 0.23884
298 1 9.9521 27.1594 6.69798 1.28797 -2.74568 -4.13594 0.324272 -4.06354 -0.515107 -0.524013 0.704991
299 1 11.357 25.6421 5.22481 0.613569 6.18239 1.53807 5.86499 -4.03073 0.29981 -0.0276016 -0.667128
300 1 12.9347 27.0657 6.69049 -0.577292 -1.28953 -3.83829 0.294468 -4.08468 -0.468005 0.0296593 0.277798
301 1 0.190771 0.330155 7.98877 0.5675 -0.168496 -2.46061 4.70126 -4.12815 0.190892 -0.497869 0.290773
302 1 1.52998 1.64637 9.70519 -1.42736 -3.15682 0.972455 0.276649 -4.08272 0.103098 -0.270594 -0.648616
303 1 2.87995 0.257353 8.13767 0.341516 -0.0404191 -2.60214 0.180159 -4.10988 0.130066 -0.475921 0.383543
304 1 4.29008 1.6221 9.55163 -4.04083 -0.468429 4.02966 0.149429 -4.04951 0.119186 0.519963 0.48205
311 1 0.149724 2.85167 8.12964 -1.74976 0.28104 0.763369 4.98213 -4.03775 -0.436881 1.38628 -0.570279
313 1 2.89377 2.99568 8.01997 0.148637 -0.416692 -0.495992 0.332714 -4.0099 -0.559303 0.342685 0.900692
403 1 2.9679 0.297361 11.0908 0.394335 0.406084 2.23505 0.173031 -4.09054 0.0988154 -0.623712 -0.176718
411 1 0.156785 3.04543 11.047 0.660313 -0.658618 -1.38298 0.135042 -4.11501 -0.800665 0.254287 0.239019
413 1 2.87494 3.0559 11.1536 -3.05234 -3.9865 -0.430171 0.320467 -4.13261 0.724913 0.235026 -0.395313
305 1 5.63949 0.272746 8.1335 -2.6762 0.601797 -1.53878 0.270368 -4.01135 0.820959 0.435491 -0.338755
306 1 7.16827 1.7968 9.58004 -0.497955 1.38302 -0.554626 0.423189 -3.95391 -0.282887 -1.34662 0.667859
307 1 8.54451 0.339894 8.17644 2.06573 -1.47317 -0.377265 0.311112 -4.10282 -0.13947 -1.00637 0.458524
315 1 5.88369 2.98404 8.05258 0.746495 3.22544 0.384377 0.619591 -4.05108 -0.628083 0.0545224 -0.0421256