ITEM: TIMESTEP
160500
ITEM: NUMBER OF ATOMS
2000
ITEM: BOX BOUNDS pp pp pp
1.0838953229856951e-01 1.4221610467701321e+01
2.1677906459713903e-01 2.8443220935402643e+01
-4.0967857910700056e+00 6.1416785791069564e+01
ITEM: ATOMS id type x y z vx vy vz c_csym c_peratom fx fy fz
2 1 1.62332 1.66863 -2.45058 -0.282889 -3.25185 -0.636516 0.279825 -3.94872 -0.192463 -0.0662164 -0.537138
4 1 4.35789 1.61575 -2.53011 0.990702 -5.33602 3.45801 6.03609 -3.93102 -0.0187887 0.0079426 0.589744
11 1 0.115605 3.14255 -4.04387 0.617832 -0.194419 3.50607 0.251329 -3.86467 0.223143 -0.148238 -0.5
101 1 0.126621 0.284403 -0.850988 -1.57173 1.46596 2.1275 0.153647 -3.98385 -0.0539877 0.169425 0.111632
103 1 2.85007 0.270771 -0.7853 0.287695 0.367304 -1.8153 0.250191 -3.83621 0.181473 0.124961 0.0993977
111 1 0.168447 3.08626 -0.821829 -2.2925 0.592843 0.179022 0.135845 -3.93521 -0.0926532 -0.0498648 -0.294027
113 1 2.87763 3.13123 -0.760672 -1.71434 2.42111 -1.1208 5.95286 -3.89992 0.121242 -0.117542 0.174774
13 1 2.94284 3.10367 -4.07582 -0.0706192 -1.95523 0.774801 0.0766115 -3.87594 -0.450946 0.204172 -0.0243313
6 1 7.17995 1.58532 -2.45802 -1.53139 -1.81767 -2.43971 0.235683 -3.91902 -0.207934 0.631853 0.160421
17 1 8.63608 3.25517 -4.02051 -1.24355 -0.0988133 -0.860341 10.016 -3.91563 -0.326583 -0.338944 -0.112202
105 1 5.90739 0.22905 -0.82023 0.812795 -1.48127 -4.16198 0.296872 -3.92154 -0.409765 0.0172689 0.108536
115 1 5.79048 3.13764 -0.836474 -0.932742 0.818202 0.0439582 0.18663 -3.90441 0.092207 -0.698988 0.00191933
117 1 8.60233 3.08029 -0.747918 0.475293 0.415756 -1.302 0.181678 -3.89094 0.142579 0.258378 -0.624176
15 1 5.86915 3.09703 -4.03384 -1.1078 -3.23994 -0.243916 0.306762 -3.84172 -0.236305 0.438152 -0.136638
8 1 9.98472 1.71462 -2.58507 1.02028 2.64764 -1.65962 0.456524 -3.90855 -0.032285 -0.292936 0.606687
9 1 11.3244 0.287262 -3.98619 -0.628437 1.37052 0.162777 5.68484 -3.90418 0.508307 -0.369768 -0.197057
10 1 12.8557 1.68831 -2.52952 -0.261261 2.58464 0.684826 0.149867 -3.88984 -0.203773 -0.0631442 0.218334
109 1 11.3921 0.306018 -0.853183 4.17545 -4.26001 3.01885 0.174803 -3.89939 -0.128908 -0.450012 -0.129067
119 1 11.4562 3.11085 -0.912769 -0.877516 0.612354 1.13148 0.166181 -3.94409 -0.0594551 -0.580405 -0.111666
12 1 1.52356 4.6359 -2.56318 1.18436 1.40208 1.05812 5.9791 -3.89452 -0.183603 -0.287382 0.0700028
14 1 4.34915 4.42365 -2.34817 -0.761965 1.11821 -1.53086 0.284517 -3.9573 -0.0251461 0.246583 -0.301522
22 1 1.54026 7.32431 -2.53313 0.529166 1.27637 -0.648244 6.00232 -3.87522 -0.371272 0.0540621 0.590649
23 1 3.01689 5.92797 -4.06646 4.21453 0.286138 -0.65637 5.86387 -3.87982 -0.0679681 0.132429 -0.38035
24 1 4.35552 7.36387 -2.4561 0.718611 1.41969 0.425215 0.115049 -3.90536 0.037112 0.0158731 -0.0783327
121 1 0.132435 5.82793 -0.82947 -2.35864 3.10392 -0.471262 0.198066 -3.89107 -0.125569 0.439759 0.29858
123 1 3.01618 5.86763 -0.724939 1.00139 1.8653 -1.24788 5.97388 -3.91126 -0.580424 -0.0279826 -0.235884
16 1 7.14135 4.5226 -2.37143 0.603539 0.154603 0.133915 0.170059 -3.93986 -0.00763097 -0.595793 -0.346344
25 1 5.70759 5.92495 -3.96735 -0.827089 1.1553 2.35682 5.19265 -3.9532 0.257826 -0.611669 -0.41302
26 1 7.1412 7.16975 -2.51048 -0.0337704 2.62343 0.778117 5.37287 -3.84673 -0.251283 0.770386 0.201473
125 1 5.74127 5.95799 -0.781923 -0.136011 -2.75282 -0.154075 0.139779 -4.02167 0.0608621 -0.0419925 0.0609473
127 1 8.57446 5.88387 -0.930547 -1.51658 -3.67076 0.00771245 0.419914 -3.8902 0.495915 0.355373 0.426259
18 1 10.0587 4.47472 -2.45448 2.01504 1.15568 0.108705 0.224258 -3.93385 0.122767 0.292921 0.121794
20 1 12.7939 4.54238 -2.4914 -0.022531 3.00342 -1.17168 0.0668741 -3.98637 -0.198132 -0.127809 0.193978
28 1 10.1169 7.35391 -2.35656 1.08986 -1.21663 1.80841 5.67478 -3.90846 -0.653322 -0.53373 0.0685711
29 1 11.4127 5.98723 -4.07719 1.3822 1.47477 -0.555896 0.0548586 -3.94856 -0.54682 -0.348945 -0.0765537
30 1 12.8531 7.28188 -2.38774 0.362699 -0.519128 0.486825 0.1405 -3.9558 0.158139 0.101164 0.347644
129 1 11.3642 5.90889 -0.774078 -0.995542 1.01394 2.2528 0.115894 -3.99254 -0.012259 -0.363002 -0.241559
32 1 1.48279 10.1923 -2.53036 2.66336 -1.18469 0.933482 0.255591 -4.0055 0.322173 -0.384773 0.325055
34 1 4.32744 10.195 -2.52936 -3.42019 -1.92301 1.41173 0.208951 -3.91392 0.0663024 -0.113204 0.340462
43 1 2.92107 11.628 -4.07213 2.17426 0.782241 3.50485 0.127355 -4.00647 0.136927 -0.511365 -0.278724
133 1 2.87707 8.77788 -0.792779 -1.44944 0.975575 0.710255 0.094636 -3.84213 0.383372 -0.0457659 0.346785
141 1 0.146359 11.6297 -0.918532 -2.20193 -7.04944 -1.51669 0.354761 -3.96744 0.215551 -0.217457 0.221061
143 1 2.92416 11.521 -0.818737 -0.572232 1.1909 1.77002 0.17152 -3.99101 -0.406075 -0.157741 -0.151933
36 1 7.17897 10.1662 -2.4041 0.10168 3.47717 0.174941 0.177743 -3.8472 -0.158891 0.080648 -0.274052
47 1 8.63625 11.4798 -3.9832 -1.46078 2.66256 0.234251 0.307399 -3.92591 -0.416234 -0.085513 -0.639389
135 1 5.71447 8.72482 -0.708877 -0.880733 0.590278 -0.109653 5.8951 -3.86808 0.461355 -0.171794 -0.0545882
137 1 8.61908 8.74613 -0.890012 -4.19951 1.4167 -2.48788 0.393276 -3.93678 -0.243795 0.199209 -0.328896
145 1 5.78797 11.4174 -0.815881 0.913579 -3.10787 0.676852 5.91694 -3.88965 -0.133449 0.491237 0.534622
147 1 8.63173 11.5707 -0.702762 -2.52053 -2.66134 -2.016 0.207625 -3.93443 -0.533293 0.267779 -0.475623
37 1 8.64539 8.6808 -3.95034 -0.410704 1.96136 0.795798 5.60894 -3.97697 -0.194518 0.04415 0.133747
41 1 14.1834 11.5242 -3.98753 -1.35835 -5.95404 3.83557 0.268171 -3.95627 -0.353119 0.0414711 -0.488681
131 1 14.189 8.78043 -0.685865 -1.59748 2.05417 3.03081 0.449287 -3.85171 0.465718 -0.286755 -0.20081
38 1 10.1092 10.2499 -2.32869 0.647054 3.02786 -2.05404 0.504944 -3.94772 -0.661345 -0.273577 0.0829103
39 1 11.3428 8.78317 -4.03904 2.80774 -0.622395 -1.00191 0.224965 -3.93605 0.221755 0.0893869 -0.00264337
40 1 12.8549 10.1114 -2.30941 -1.75728 -0.634733 -0.267602 0.26978 -3.93388 0.0481041 -0.267248 -0.395651
139 1 11.4119 8.69776 -0.722977 -0.425376 2.4171 -0.0430739 0.116142 -3.99471 0.142819 0.227149 -0.303379
149 1 11.4267 11.5446 -0.722004 -0.904464 -0.906018 0.248794 0.186846 -3.95557 0.289666 0.462202 -0.264842
49 1 11.351 11.4979 -4.00747 -3.94296 -1.72452 -3.57845 0.149079 -3.89933 0.245716 0.235917 0.0664796
42 1 1.60077 12.9976 -2.5486 -0.841826 -0.173751 0.753914 5.50294 -3.92283 -0.258713 0.114173 0.151792
44 1 4.30049 12.9516 -2.56539 -1.17519 0.372824 -0.13007 6.28462 -3.98849 0.45405 -0.172734 0.440559
52 1 1.58776 15.7356 -2.29483 -0.585983 1.26946 1.71295 5.3242 -3.78979 -0.75903 0.0164381 -0.484412
54 1 4.38463 15.6552 -2.45979 0.269637 0.959657 1.9614 5.95013 -3.9717 -0.652455 0.0771525 -0.0734494
153 1 2.9946 14.2978 -0.804226 -3.03426 -0.361765 3.65674 0.170281 -3.89692 -0.347702 0.0502457 -0.180117
46 1 7.13899 12.8477 -2.48698 -0.042375 -0.703018 -2.37022 5.40746 -3.90008 -0.223045 0.442927 0.128082
56 1 7.08452 15.7726 -2.54724 0.19616 0.505449 -1.21975 0.279496 -3.98288 0.322501 -0.386772 -0.0293631
155 1 5.76502 14.3443 -0.867142 -0.699273 2.50818 -2.71856 0.105827 -3.92665 0.197423 -0.238596 0.225781
157 1 8.53251 14.4644 -0.774192 1.77519 1.9958 -4.01974 5.367 -3.91501 -0.0612752 -0.225122 -0.0972203
57 1 8.49816 14.3386 -3.94134 5.27468 2.46447 0.151665 0.56986 -3.81589 0.128906 0.0510312 -1.03411
51 1 14.0057 14.3518 -4.09633 5.08997 3.62125 -2.07853 9.83218 -3.83996 1.06342 -0.41988 -0.408999
151 1 14.2009 14.4155 -0.794944 -4.71089 2.01634 -0.85659 0.132367 -3.83909 0.124433 -0.119289 -0.0224618
48 1 9.93985 13.0563 -2.43095 2.86016 2.34417 0.701272 5.40097 -3.92179 0.26981 -0.592575 0.228451
50 1 12.7181 12.9904 -2.43394 0.559624 -1.36974 -0.820506 0.191033 -3.92576 0.032338 0.061478 -0.208533
58 1 9.99316 15.7186 -2.45089 -3.3381 -1.51398 5.38263 0.187174 -3.97848 0.0898887 0.0985 -0.249304
60 1 12.7967 15.7437 -2.44467 1.53771 1.90327 -4.70531 0.116552 -3.9855 -0.504716 -0.0169875 0.616573
159 1 11.3491 14.3264 -0.739597 -0.265735 -1.65506 -3.98071 0.157542 -3.93476 0.52054 0.0297433 0.197735
62 1 1.43944 18.5161 -2.40541 0.272627 0.831543 -0.200207 0.118733 -3.88609 0.433366 0.0618983 -0.518329
64 1 4.38586 18.6552 -2.40081 1.24428 1.0664 2.86252 5.53534 -3.8958 -0.257513 -0.723912 0.290418
163 1 2.94245 17.1558 -0.920013 0.341627 2.40032 0.506019 0.432327 -3.91689 0.534551 0.344756 0.251052
171 1 0.141802 19.9783 -0.698521 -0.0590841 -1.37942 4.27312 0.18502 -3.9896 -0.201777 -0.290786 -0.459493
173 1 2.89555 19.9823 -0.828475 0.785649 -1.23368 2.3689 0.153999 -3.96985 -0.358875 -0.50696 0.248551
66 1 7.24355 18.6165 -2.40167 2.75597 -4.35103 0.905848 5.0048 -3.97383 -0.567192 -0.0475689 -0.252197
67 1 8.57677 17.1461 -4.07019 -4.30079 -3.56988 1.31798 0.0496359 -4.01349 -0.343443 -0.254873 -0.011085
165 1 5.78304 17.093 -0.87709 1.97311 1.99329 -0.167527 0.251515 -3.92324 -0.345564 0.450234 -0.146269
167 1 8.56005 17.078 -0.935633 1.63712 1.01306 -0.622391 4.93937 -3.95857 0.39392 -0.298942 0.86842
175 1 5.70632 20.007 -0.800007 -3.42076 -2.85137 2.01629 0.140124 -3.93509 0.238546 -0.0805154 -0.217592
177 1 8.58858 20.043 -0.574508 -1.05917 0.80188 -0.731301 5.42238 -3.89162 -0.0791998 -0.200026 -0.934476
75 1 5.71713 19.9361 -4.08643 -4.53949 -0.9021 2.29786 6.49168 -3.91613 -0.381083 0.283465 -0.326648
65 1 5.67248 17.193 -4.04461 -1.31158 -3.63153 -0.620776 0.349145 -3.95279 0.285042 -0.12564 -0.263039
161 1 14.1852 17.2046 -0.692782 -8.06951 -0.86164 0.0732044 0.233208 -3.99769 0.268304 0.302961 -0.375857
68 1 9.83757 18.5862 -2.37275 1.01621 0.95189 3.77626 5.6072 -3.95152 0.635075 0.286272 -0.0681487
70 1 12.7582 18.5098 -2.41714 -2.75978 -0.241021 0.901339 0.161623 -3.84688 0.0673539 0.428085 -0.355507
169 1 11.4357 17.1907 -0.811577 -0.050047 0.778513 1.36961 0.115247 -3.91289 -0.641909 -0.252563 0.100599
179 1 11.4548 19.9395 -0.717875 0.478562 4.61523 -0.247094 6.21536 -3.94931 -0.205541 -0.106847 -0.0485572
69 1 11.3235 17.1806 -3.98079 2.51938 -0.439877 2.89062 0.237685 -3.90983 0.165021 -0.478759 -0.528607
71 1 14.189 20.001 -3.97348 -3.02828 1.71166 0.793185 0.32339 -3.81441 -0.244791 -0.632611 -0.350725
61 1 14.2026 17.0274 -4.01769 -2.79754 0.110739 5.17862 0.313426 -3.86639 0.342326 0.228719 -0.0426347
72 1 1.54936 21.3951 -2.50781 2.3338 -3.4761 -2.56089 5.99272 -3.99456 -0.468987 -0.17738 -0.367504
74 1 4.24289 21.3195 -2.36575 -0.775897 2.76848 -0.309503 0.397842 -4.06308 0.772894 0.213647 -0.629251
82 1 1.5098 24.075 -2.58723 -0.197856 1.54937 -4.05427 0.309133 -3.97077 0.0850325 0.39423 -0.202959
84 1 4.24694 24.1216 -2.42677 1.75243 2.83472 -4.12876 5.34926 -3.894 0.565164 0.413847 -0.556836
181 1 0.128659 22.763 -0.867937 -3.03311 -1.67311 -0.629939 0.0493396 -3.97757 0.00122743 -0.354419 -0.447351
183 1 2.89382 22.7594 -0.914363 0.572942 -1.11899 -0.365379 0.179987 -4.03461 0.125073 0.504084 0.622553
76 1 7.14056 21.2635 -2.45545 -0.691281 0.193514 1.05787 5.61525 -3.79987 0.278602 0.39354 0.276617
86 1 7.25436 24.2668 -2.45258 -2.43118 3.29649 -1.15762 5.97639 -3.81176 0.249748 -0.266736 0.0773131
185 1 5.72509 22.8979 -0.90882 3.67767 -2.14848 -3.35625 5.71751 -3.96118 0.370039 -0.404649 -0.0788979
187 1 8.47118 22.692 -0.721528 -0.732136 -0.532565 -1.73565 5.47108 -3.92034 -0.0172178 0.220508 -0.309736
78 1 9.92402 21.3232 -2.5161 -2.14879 -1.2859 1.20999 0.239841 -3.92506 0.0838481 0.489419 0.73624
80 1 12.7264 21.3466 -2.43418 -2.02506 0.894117 1.33119 0.0661099 -3.89421 0.133801 -0.200066 -0.426717
88 1 9.99398 24.1702 -2.40803 -1.34963 2.3224 -3.76156 0.220162 -3.89054 -0.0304005 0.263256 0.177612
90 1 12.8226 24.1983 -2.55226 -3.32555 -1.34099 0.789537 0.190718 -3.86433 -0.184134 0.195699 0.272482
189 1 11.404 22.6532 -0.887689 1.1462 2.87937 3.03823 0.297777 -3.84569 0.0962483 0.386743 0.0967788
92 1 1.49183 27.0716 -2.46712 -1.55268 0.823337 -0.21304 0.0704152 -3.87781 -0.0324873 -0.0626313 0.174719
93 1 2.95679 25.6072 -4.07534 -2.98218 -1.24306 2.03838 0.183286 -3.88302 0.0639745 0.0323686 -0.123443
94 1 4.31233 27.0701 -2.29458 -2.42482 -0.468398 -1.32983 0.743688 -3.87863 -0.483604 -0.181113 -0.5791
193 1 2.87926 25.4829 -0.898195 -1.0862 0.475835 1.41936 5.75887 -3.89683 -0.232894 0.845927 0.324922
5 1 5.72241 28.2956 -4.00877 2.69086 -0.906142 0.0342517 5.27099 -3.92165 -0.107682 0.445487 -0.552994
107 1 8.62684 28.3911 -0.781136 1.62718 -2.83475 -3.52836 5.85601 -3.98816 -0.298261 0.761963 -0.613096
96 1 7.19496 27.0059 -2.4647 3.8854 -2.09663 -3.2721 0.0405699 -3.99605 -0.331907 0.18236 0.124489
195 1 5.7699 25.6353 -0.881793 -1.7019 -1.17403 1.74296 6.09037 -3.8417 -0.0698287 0.144736 0.542706
197 1 8.65402 25.6862 -0.824137 -0.592902 -0.620959 0.00800132 0.33223 -3.98897 -0.610031 -0.716782 -0.0785982
7 1 8.51249 28.4072 -3.98574 0.305773 -1.36188 3.04787 0.369092 -3.92684 -0.10886 0.0816381 -0.56801
191 1 14.1954 25.5315 -0.871719 -0.0885336 -4.4938 -0.48509 0.210117 -3.85549 0.617384 0.607922 -0.654772
98 1 9.85719 27.0277 -2.51301 2.60699 4.64685 0.62246 5.70991 -4.01818 1.03385 0.232651 -0.0449035
100 1 12.8111 27.1397 -2.45309 0.688756 2.41483 -3.36628 0.112453 -3.90083 0.12262 -0.239454 0.00778944
199 1 11.3947 25.7747 -0.822417 -1.77748 -0.753815 0.440887 5.54771 -3.85615 0.606898 -0.484244 -0.391583
99 1 11.3966 25.6653 -4.02873 -3.11862 -0.640777 0.494149 0.145504 -3.93624 0.0137634 -0.0254512 -0.264572
102 1 1.43258 1.58866 0.845858 7.38627 -3.29026 1.48818 0.30148 -3.99018 0.100835 0.167351 0.0971231
104 1 4.40471 1.70471 0.747893 -2.62904 -0.431866 -2.50035 0.240092 -3.88234 -0.279095 -0.0372082 -0.100286
202 1 1.64591 1.56967 3.96735 2.02744 3.5456 -1.59179 4.83523 -4.00754 -0.936816 0.761787 -0.0132966
203 1 2.94499 0.259696 2.40823 -1.3304 -3.48688 0.0854903 0.132203 -4.01624 -0.0123563 0.280847 -0.582005
204 1 4.18458 1.68524 4.05549 -0.935437 1.48785 2.63114 4.78402 -3.95464 1.18268 -0.568858 -0.020142
213 1 2.88677 3.08084 2.37104 -2.28947 -0.845795 -1.07431 0.373192 -3.96185 -0.111932 -0.115295 -0.1307
106 1 7.15632 1.63052 0.731538 0.736671 -1.16949 0.0239501 0.259476 -4.0089 0.490379 0.404188 0.728337
205 1 5.64874 0.299036 2.26229 2.33469 0.995414 0.291621 9.51519 -3.85393 0.278049 -0.334848 0.575229
206 1 7.2548 1.68985 4.01369 -1.46106 -1.55409 1.7364 5.00595 -3.89958 -0.381683 -0.372165 -0.0409859
207 1 8.58474 0.236208 2.49053 1.31666 3.04051 1.49325 0.162765 -3.92002 0.26053 0.201301 -0.936691
215 1 5.78167 2.95842 2.54737 -1.49422 -2.50707 3.51511 0.550432 -3.90554 -0.578686 0.411585 -0.18372
217 1 8.60442 3.0921 2.43336 -1.80041 2.92479 -5.24384 0.124095 -3.98751 -0.329702 0.0610255 0.145852
201 1 14.2143 0.277593 2.49447 -0.76465 1.66164 -3.30675 0.333793 -3.95217 -0.355207 -0.0554511 0.0451501
211 1 14.1953 3.09372 2.55291 0.131749 -3.47244 0.658656 0.295842 -3.87641 0.181987 -0.228394 0.065444
108 1 9.98023 1.81548 0.869269 1.78008 -0.0382443 0.481447 5.86141 -3.84369 0.0981927 -1.2591 0.203125
110 1 12.7567 1.63776 0.771661 0.143622 0.261967 0.471904 0.167666 -3.83036 0.528153 -0.0330041 0.583175
219 1 11.4042 3.08595 2.46023 2.96876 -3.6 -0.306264 0.0669265 -3.8913 0.00459934 -0.130217 0.0234008
112 1 1.47335 4.44722 0.936417 -2.08488 5.53109 1.88305 0.259316 -3.90182 -0.0597844 0.348552 -0.10199
114 1 4.45714 4.53943 0.949851 0.408107 -1.46821 1.68028 5.40155 -3.96502 -0.201035 -0.429474 -0.010183
122 1 1.5387 7.19477 0.900882 -2.178 2.10286 -1.52883 0.270214 -3.82282 -0.228302 0.0874962 0.294286
124 1 4.30599 7.3213 0.876358 -1.70609 -0.894295 0.386355 0.162176 -3.91242 0.0337047 0.232965 0.0552745
223 1 3.00176 5.86832 2.50291 -2.9209 -3.41332 -1.19244 0.120776 -3.95101 0.107935 -0.0364052 0.507611
116 1 7.08446 4.43511 0.876817 -0.717838 -0.661302 1.69127 5.51652 -3.92922 0.482227 0.148308 -0.0980352
126 1 7.33953 7.39572 0.854079 1.37971 -3.46356 0.697126 5.73238 -3.8296 -0.441736 -0.141744 -0.490687
216 1 7.15048 4.45322 3.96888 0.663868 1.20315 1.59813 0.368357 -3.99431 0.272178 0.184665 -0.0101266
225 1 5.7941 6.05956 2.41095 0.299468 -1.75276 -1.18853 5.79628 -3.89513 0.296445 -0.48413 0.263091
227 1 8.61587 5.8789 2.41806 -0.532809 -0.371899 0.126652 0.143658 -3.92 -0.183196 0.0909228 0.168272
221 1 14.1524 5.86373 2.51811 0.796103 -1.93786 -0.0692733 0.135826 -3.95091 -0.0560673 0.0280183 0.115691
118 1 10.0291 4.4796 0.836836 -2.00022 0.251406 -1.34662 5.75359 -4.00231 -0.214072 0.310516 -0.0417295
120 1 12.7727 4.51546 0.767866 -2.93314 -0.0391201 0.674702 0.125987 -3.94638 0.415389 -0.0592842 0.50656
128 1 10.0124 7.32217 0.784281 -2.7644 2.28321 3.1472 5.8192 -3.98957 -0.419957 -0.0564581 0.183656
130 1 12.7448 7.26336 0.790661 -1.8326 -3.86476 -3.53257 0.176523 -3.9582 0.496606 -0.11006 -0.00680047
218 1 9.92391 4.44006 4.09029 2.54663 2.02038 1.45237 0.0904013 -3.96888 0.244158 -0.00491927 0.109437
220 1 12.7806 4.44772 4.08143 -0.879614 -1.25736 1.20844 0.0667398 -3.84371 -0.125326 0.0251339 0.276494
229 1 11.2652 5.91426 2.4963 0.58398 1.74186 -1.1864 5.43237 -3.96865 0.577051 0.0892168 0.00532389
230 1 12.8446 7.35538 4.00066 2.31232 0.678649 1.21522 0.285062 -3.928 -0.210741 -0.302611 0.347664
132 1 1.49806 10.2454 0.747762 0.926583 1.77752 2.20689 0.211903 -3.93066 -0.364263 -0.504183 0.0745112
134 1 4.33421 10.2257 0.895726 -1.95039 -2.01599 -1.69927 5.67581 -3.89213 0.0798764 -0.196234 0.289953
233 1 2.86938 8.7146 2.5209 -0.683116 0.194601 5.31636 0.150312 -3.82502 0.264897 -0.211786 -0.0285063
234 1 4.30212 10.2221 4.08806 -0.621179 0.157015 -0.123602 5.67549 -3.90163 0.666081 -0.511601 -0.0907859
241 1 0.149986 11.5192 2.41249 -2.41095 0.904273 -0.0212207 0.0972158 -3.97269 -0.284845 -0.228899 0.428836
243 1 2.87755 11.525 2.35551 -0.234391 0.744033 0.670144 0.270673 -3.94735 0.0491106 0.201399 0.321197
136 1 7.34978 10.1327 0.871291 0.629619 0.98562 1.20116 5.21322 -3.99567 -0.849266 -0.154991 -0.375324
235 1 5.87066 8.81598 2.38138 0.465343 -1.43871 1.4062 0.408559 -3.92533 -0.457285 -0.323867 0.115369
237 1 8.63235 8.75913 2.6223 2.56455 0.935182 0.542097 0.41788 -4.0295 -0.112709 0.186284 -0.319615
245 1 5.87987 11.5851 2.45122 0.240801 -0.541356 -0.243051 0.426844 -3.92042 -0.483086 -0.253327 -0.111577
247 1 8.6244 11.498 2.56928 0.432483 -3.51449 2.45946 6.09215 -4.01238 -0.295175 0.297884 -0.045612
231 1 14.2058 8.74973 2.41138 -0.187028 1.52542 1.17023 0.088894 -3.95927 0.377395 -0.0904955 -0.0917734
138 1 9.92992 10.142 0.79884 -1.64946 -2.47072 4.24093 5.47905 -4.01635 0.662181 -0.493668 0.280074
140 1 12.8378 10.2224 0.807677 -3.06779 0.590986 0.953237 0.206356 -3.97524 -0.646764 -0.0135208 0.2831
239 1 11.364 8.67474 2.41935 1.07823 -1.10089 5.00007 0.105433 -3.95741 0.148351 0.167423 0.146551
240 1 12.788 10.0949 3.92491 0.473313 1.12475 -2.36237 10.56 -3.87479 0.446803 0.16324 0.557167
249 1 11.3994 11.5636 2.55761 0.00818624 4.09037 -1.73351 0.276844 -3.95648 -0.544226 -0.232382 -0.202301
142 1 1.52181 13.0509 0.918974 -1.28477 -4.17543 2.9049 0.383352 -3.94392 -0.156808 -0.32206 0.0260685
144 1 4.29805 12.8216 0.736533 1.81958 -2.20134 0.0142737 5.09799 -3.9106 0.64057 0.663411 0.349474
152 1 1.51339 15.8576 0.892724 -0.669006 2.84052 -0.820189 5.60665 -4.02937 0.160244 -0.523134 -0.209319
154 1 4.25725 15.7179 0.799137 2.46855 -1.35996 -1.82568 0.31322 -3.91162 0.535897 0.137625 -0.0666416
242 1 1.53992 12.9165 4.05451 0.280113 3.4737 -1.1283 0.132151 -3.97598 0.268547 0.117242 -0.293351
244 1 4.24982 12.7782 4.08373 2.14938 -0.0921022 -0.749942 5.61535 -3.90773 0.392153 0.708695 -0.0605515
251 1 0.128475 14.4623 2.52066 2.68999 -0.1114 0.508103 0.238082 -3.92685 -0.348937 -0.170821 0.0156959
252 1 1.63436 15.7834 3.9584 -3.12021 0.366244 0.726554 4.819 -3.88184 -0.223798 -0.23181 0.390651
253 1 3.02926 14.3678 2.49297 0.643288 -2.70259 -2.00417 0.37269 -3.9262 -0.211819 -0.0210499 0.0704913
146 1 7.13468 12.9886 0.814905 1.04428 0.1527 -2.62964 0.134519 -3.81616 0.300447 -0.0445328 -0.152764
156 1 7.1141 15.8395 0.844453 -5.45427 -4.00032 2.42238 0.30701 -3.9406 0.100688 -0.252579 -0.0964006
255 1 5.79332 14.3612 2.40202 0.949383 2.2935 -3.25327 6.24307 -3.9082 -0.238518 0.183118 0.206428
256 1 7.19239 15.8423 3.98214 -0.861153 0.781607 -0.146585 0.414184 -3.98584 0.282165 -0.183957 0.199331
257 1 8.60857 14.4287 2.51103 -2.00567 3.54744 2.76289 0.0776255 -3.90594 -0.069649 -0.447095 -0.292499
148 1 10.0789 12.8625 0.921703 2.53119 -0.204599 1.59625 5.4361 -3.89744 -0.177792 0.169444 -0.297417
150 1 12.8144 12.9078 0.884545 0.842405 -1.04171 -0.584461 0.167786 -3.99016 0.431786 0.181943 0.0722042
158 1 10.0599 15.8093 0.903017 1.95172 -4.28031 -2.67566 0.275134 -3.86593 -0.329117 -0.0407311 -0.307943
160 1 12.7974 15.8078 0.793914 2.05154 2.79304 -0.0709358 0.215604 -3.91878 0.217047 -0.211993 0.513466
250 1 12.9049 12.9601 4.03176 1.45982 -1.9964 -1.75047 0.291778 -3.95617 -0.367704 -0.189266 0.553897
259 1 11.5154 14.2983 2.44952 2.36546 0.76793 -0.871017 0.271926 -3.97388 -0.386876 0.745499 -0.204135
162 1 1.61205 18.4318 0.828892 0.103087 0.473685 0.329909 5.33868 -3.92565 -0.395819 0.301616 0.268291
164 1 4.41893 18.6151 0.704489 -0.211573 3.22505 -5.20284 0.376935 -3.9302 -0.220657 -0.804714 0.0221177
262 1 1.64124 18.6991 4.07137 -1.57751 0.894061 -4.43727 5.33832 -3.95451 -0.662033 -0.574999 -0.134963
263 1 3.02324 17.1738 2.43497 -2.37006 -0.133771 0.32695 0.281916 -3.98118 -0.216182 0.332654 0.620406
271 1 0.239882 19.931 2.335 -2.9132 -1.24747 -1.34561 0.636388 -3.94942 -0.13867 -0.238647 0.0449007
273 1 3.06119 20.0027 2.4525 0.40391 -0.0741893 3.19324 5.71766 -3.92468 -0.236233 0.308969 -0.470617
166 1 7.16241 18.5363 0.808947 0.698547 0.150344 -2.49931 0.20042 -3.94751 -0.1206 0.186776 -0.127149
265 1 5.71847 17.1429 2.58249 -1.6126 -0.82668 -3.54668 4.87575 -3.93435 -0.356989 0.336154 -0.215403
266 1 7.25348 18.553 3.98349 1.95445 3.37989 -0.145865 5.19859 -3.85926 -0.25967 -0.0851525 0.264708
267 1 8.63962 17.1234 2.37109 1.62128 1.24999 -1.44411 0.285504 -3.92318 -0.538751 0.650179 0.0248434
275 1 5.66392 19.9514 2.45934 0.0670137 -1.38317 -3.87798 5.3261 -3.92896 0.582938 0.0362738 0.357211
277 1 8.52362 20.0544 2.4477 0.898333 -0.0775842 -0.479706 4.95155 -3.95071 0.481256 0.131552 0.158486
261 1 14.1769 17.1487 2.53571 3.22524 -0.724689 1.23685 5.2368 -3.97738 0.188397 0.138602 -0.126095
168 1 9.9888 18.5753 0.855473 -3.61858 0.233632 -1.83299 0.233721 -3.89575 -0.0250536 -0.19113 -0.162587
170 1 12.8038 18.6463 0.970577 0.900172 4.64776 -2.52583 0.363409 -3.97779 0.0197984 -0.600157 -0.385384
269 1 11.4148 17.1891 2.65072 1.22914 3.37173 -1.05524 0.443361 -3.93635 0.461686 0.517407 -0.692987
270 1 12.909 18.7314 4.07708 -1.75346 -1.91228 -0.862528 5.64798 -3.88673 -0.454323 -0.336513 0.269834
279 1 11.3598 20.0486 2.42395 2.0114 -4.45816 0.994583 0.290664 -3.86524 -0.563258 0.0939856 0.0578405
172 1 1.47279 21.4257 0.858838 2.33301 -0.225112 2.95214 0.291641 -3.94841 0.905083 0.181184 0.0967144
174 1 4.32705 21.4567 0.692497 -1.27528 -0.710527 -1.51037 0.299647 -3.94313 -0.0650448 -0.0219421 -0.187316
182 1 1.5749 24.1646 0.807178 -0.784188 -3.79054 -2.16947 0.0661323 -3.9541 -0.603985 0.128486 0.0969228
184 1 4.3073 24.238 0.760861 -0.587332 0.565944 -1.32797 0.148709 -3.95071 0.37518 -0.433315 -0.526173
272 1 1.50093 21.4332 3.98982 -1.3891 0.701157 2.48604 0.406119 -4.00638 -0.213515 -0.353205 0.509514
281 1 0.183488 22.7914 2.51736 -2.74019 0.616667 0.622568 0.174951 -3.91554 -0.292157 0.478592 -0.584275
283 1 2.92311 22.8102 2.53665 1.18139 2.06881 4.32688 0.199412 -3.87674 0.774494 -0.209603 -0.0320335
176 1 7.06694 21.3141 0.881302 -3.95137 -1.5893 -1.01736 0.405249 -3.98259 0.00771593 0.0861832 -0.228546
186 1 7.17879 24.1447 0.707024 2.78581 2.06017 1.88695 0.205348 -3.87006 0.0950355 0.621088 -0.0502176
285 1 5.85589 22.7635 2.31296 1.31531 1.02106 -0.50399 0.591715 -3.86756 -0.368687 0.623254 0.358656
287 1 8.6565 22.7436 2.3627 2.42 3.87829 -0.705154 11.1352 -4.01762 -0.653354 0.191718 0.0800226
178 1 9.99102 21.4199 0.765979 -1.13098 -1.50552 3.15931 0.267303 -4.01074 0.258358 -0.298251 0.291713
180 1 12.8404 21.4228 0.909298 -0.471497 0.0061306 0.269058 0.325401 -4.05123 -0.0330807 0.0308828 0.250251
188 1 10.0407 24.0693 0.651448 -1.30348 -2.27273 0.479064 5.00109 -3.85112 -0.303557 0.945222 -0.0545799
190 1 12.925 24.1389 0.777086 -1.55903 -2.12372 1.13416 5.78059 -3.83183 -0.58687 0.118247 0.621319
280 1 12.8739 21.3633 4.00502 1.61778 1.13426 1.57654 5.79951 -3.9509 -0.288779 -0.141365 0.167452
289 1 11.3072 22.8471 2.4535 -3.96248 4.07387 -0.259648 5.27248 -3.96002 0.429689 0.229378 -0.0226347
290 1 12.8777 24.1232 4.06554 1.06046 -1.98762 3.24564 0.24344 -3.96069 -0.234165 0.279194 0.526908
192 1 1.54582 26.9795 0.842638 0.832332 -0.820942 0.130328 5.43259 -3.94544 -0.33787 -0.0188739 0.0693006
194 1 4.33343 27.1078 0.780736 -1.61671 -3.20912 1.28134 0.257259 -3.92123 -0.0977363 -0.630034 -0.598247
291 1 0.123486 25.6243 2.58036 -1.91934 -0.395923 -0.219087 0.428468 -3.89492 -0.0873324 -0.253174 -0.671226
292 1 1.58125 27.1181 3.97421 0.521729 -0.104332 -0.21211 5.5114 -3.9858 0.0736993 -0.584455 0.00994949
293 1 3.0799 25.6086 2.4233 2.80973 1.17343 -0.298043 6.044 -3.87877 -0.585521 0.153493 0.312457
294 1 4.2495 27.1204 4.0575 -1.17778 2.9951 1.58236 5.16204 -3.92695 0.549561 -0.0160333 -0.186535
196 1 7.3038 27.0489 0.933692 3.37805 -2.98627 4.17109 5.01652 -3.88456 -0.826852 0.00505209 -0.391916
295 1 5.73558 25.636 2.40079 2.43808 0.681994 -1.51506 5.35693 -3.9268 0.22343 0.220667 0.249382
296 1 7.17419 27.0665 3.96323 0.309675 6.50899 -1.89168 0.270314 -3.87551 -0.222401 0.170055 0.177476
297 1 8.56397 25.5256 2.45095 -0.134748 1.31643 -3.31811 0.367288 -3.90029 0.63777 0.401515 0.0184407
209 1 11.3537 28.3011 2.52329 -0.393176 -1.47754 0.78913 6.11112 -3.79712 0.547849 0.552851 -0.448473
198 1 9.95313 27.0869 0.713819 0.689763 -0.698924 -1.31982 5.30952 -3.81708 0.404262 0.0186496 0.930587
200 1 13.0099 27.0067 0.772003 5.30296 -0.270392 0.651806 5.7065 -3.84794 -0.265734 0.159692 0.0187524
299 1 11.357 25.6421 2.49691 0.613569 6.18239 1.53807 6.4533 -3.79344 0.163318 -0.0960106 0.152333
301 1 0.190771 0.330155 5.5826 0.5675 -0.168496 -2.46061 5.07847 -3.9869 -0.23958 -0.268878 0.603535
302 1 1.52998 1.64637 7.49881 -1.42736 -3.15682 0.972455 0.333677 -3.93814 -0.205614 -0.50239 -0.478596
303 1 2.87995 0.257353 5.74883 0.341516 -0.0404191 -2.60214 0.192452 -4.0052 0.400911 -0.249501 -0.132802
304 1 4.29008 1.6221 7.32738 -4.04083 -0.468429 4.02966 0.163344 -3.87217 0.285724 0.603323 0.240067
311 1 0.149724 2.85167 5.73987 -1.74976 0.28104 0.763369 5.37269 -3.85413 0.0771253 1.33296 -0.30283
313 1 2.89377 2.99568 5.61742 0.148637 -0.416692 -0.495992 5.49187 -3.85989 0.0935599 -0.0733974 0.409046
305 1 5.63949 0.272746 5.74417 -2.6762 0.601797 -1.53878 5.41786 -3.81389 0.729017 -0.0528568 -0.447852
306 1 7.16827 1.7968 7.35909 -0.497955 1.38302 -0.554626 6.01531 -3.87381 -0.534686 -0.731868 0.373424
307 1 8.54451 0.339894 5.79211 2.06573 -1.47317 -0.377265 0.343599 -3.94675 -0.215449 -0.452557 -0.132145
315 1 5.88369 2.98404 5.65384 0.746495 3.22544 0.384377 5.48466 -3.95387 -1.00636 0.753522 0.184154
317 1 8.5575 3.091 5.65521 0.877774 1.33708 0.284955 0.0804327 -4.07289 -0.602779 -0.0964851 0.22831
208 1 9.93587 1.5992 4.11009 -2.11946 3.54369 -4.60115 0.124805 -4.03928 0.52007 0.328744 -0.220848
210 1 12.7168 1.62492 4.14076 1.93469 -2.84729 3.21644 0.363756 -3.90917 0.143511 0.250634 -0.513659
308 1 9.85407 1.73124 7.31235 -3.32365 0.641461 0.348771 0.210236 -3.94131 0.24817 -0.213484 0.180418
309 1 11.427 0.271834 5.78985 2.261 -0.338001 1.59023 0.163649 -3.92109 -0.312922 -0.116409 0.00428234
310 1 12.8338 1.67333 7.33531 -2.12593 2.9352 -1.91821 0.178806 -3.91965 -0.286099 -0.194964 0.200885
319 1 11.2832 3.0542 5.74812 1.40137 -1.12676 -0.599603 0.111842 -3.97576 0.682264 0.177964 -0.505793
212 1 1.5107 4.56417 4.11677 1.71349 1.1107 -0.37813 5.61948 -3.94611 0.185351 -0.243015 -0.36517
214 1 4.35594 4.34938 4.13636 -3.60792 0.888428 1.10906 5.11909 -3.90815 0.212183 0.435038 -0.464475
222 1 1.54559 7.23945 4.09357 2.60978 -1.28947 -2.65909 5.61538 -3.96247 -0.175429 0.214706 -0.147816
224 1 4.45542 7.31972 4.13238 2.28078 -2.16034 3.83898 0.311234 -3.90396 -0.840095 0.501916 -0.407184
312 1 1.51633 4.46751 7.28748 6.58074 -1.87872 -2.48992 0.257061 -3.9345 0.11373 -0.303539 0.203058
314 1 4.38482 4.47065 7.41157 1.38421 -0.500902 1.94911 5.98653 -3.83862 -0.244386 -0.272664 -0.501895
322 1 1.50912 7.24612 7.27258 2.77664 -2.04083 2.3912 0.114949 -3.91234 0.193501 -0.532499 0.0625041
323 1 3.05231 5.91185 5.66899 -1.31866 2.39502 -0.268551 0.269085 -3.92657 -0.152314 -0.00637748 0.00645037
324 1 4.3708 7.29584 7.30244 1.4459 0.563605 -1.51929 0.134141 -3.94553 -0.14897 -0.289443 0.0513564
226 1 7.22143 7.27669 4.09657 -1.92098 2.73055 -2.00716 0.113551 -3.97087 0.14162 -0.160487 0.102939
316 1 7.10763 4.57462 7.34354 2.31643 -3.52172 -0.258836 5.86817 -3.97556 -0.343918 -0.846896 0.0107473
325 1 5.76431 5.8264 5.60679 -2.43851 2.57701 -2.10025 0.276406 -3.94861 0.32881 -0.0677568 0.212585
326 1 7.19795 7.24786 7.25023 -1.71798 -0.00966545 0.572563 0.277986 -4.00348 -0.503822 0.347506 -0.470502
327 1 8.55272 5.78657 5.82395 -1.12912 -0.410511 1.0442 0.571835 -3.92649 0.143544 0.141618 -0.597714
228 1 9.92162 7.27115 4.18184 0.0778168 -0.255412 1.79302 0.273668 -3.94505 0.415193 0.353678 0.503535
321 1 14.1448 5.82456 5.71101 4.06995 0.134137 -0.309495 0.202244 -3.92745 0.0727274 0.581613 -0.384281
318 1 9.98504 4.43593 7.30659 1.75132 -4.65897 3.2673 0.090993 -3.97823 -0.0511766 0.10629 0.308253
320 1 12.7757 4.48205 7.31386 1.89733 -3.11783 2.82706 0.189665 -3.90464 0.0716116 -0.593245 0.326153
328 1 10.0129 7.28399 7.1801 2.65819 -0.927283 -2.4793 4.78979 -3.92629 0.273575 -0.112894 0.576145
329 1 11.4291 5.87426 5.69255 1.9858 -1.38951 -0.786356 0.0771796 -3.94924 -0.298791 0.109222 -0.0892493
330 1 12.8425 7.28945 7.33675 -1.97867 0.420953 -1.07444 0.0979235 -4.00728 0.0130611 0.0539656 -0.0900049
232 1 1.56015 10.1641 4.11134 2.12226 0.0705619 -0.681687 0.225088 -3.98647 -0.0591727 -0.33093 -0.388511