ITEM: TIMESTEP
165000
ITEM: NUMBER OF ATOMS
2000
ITEM: BOX BOUNDS pp pp pp
1.0838953229856951e-01 1.4221610467701321e+01
2.1677906459713903e-01 2.8443220935402643e+01
-4.2238047794886304e+00 6.1543804779488191e+01
ITEM: ATOMS id type x y z vx vy vz c_csym c_peratom fx fy fz
2 1 1.62332 1.66863 -2.57121 -0.282889 -3.25185 -0.636516 0.279914 -3.9438 -0.463861 -0.280548 -0.559802
4 1 4.35789 1.61575 -2.65105 0.990702 -5.33602 3.45801 6.05256 -3.9241 0.150559 0.0160192 0.24736
11 1 0.115605 3.14255 -4.17068 0.617832 -0.194419 3.50607 0.25305 -3.85845 -0.0619214 0.0437832 -0.241136
101 1 0.126621 0.284403 -0.965421 -1.57173 1.46596 2.1275 0.153723 -3.97959 -0.0183416 -0.0951613 -0.237158
103 1 2.85007 0.270771 -0.899479 0.287695 0.367304 -1.8153 0.250661 -3.83073 0.285796 0.217326 0.219135
111 1 0.168447 3.08626 -0.936149 -2.2925 0.592843 0.179022 0.136047 -3.92908 0.113205 -0.272701 -0.174562
113 1 2.87763 3.13123 -0.874754 -1.71434 2.42111 -1.1208 5.96982 -3.89389 0.112611 -0.183786 -0.0733248
13 1 2.94284 3.10367 -4.20276 -0.0706192 -1.95523 0.774801 0.0767912 -3.87239 -0.265631 -0.0078383 -0.0320197
6 1 7.17995 1.58532 -2.57869 -1.53139 -1.81767 -2.43971 0.236072 -3.91349 -0.0407908 0.658807 -0.159552
17 1 8.63608 3.25517 -4.14724 -1.24355 -0.0988133 -0.860341 10.0519 -3.91006 -0.255456 -0.410387 -0.0174516
105 1 5.90739 0.22905 -0.934544 0.812795 -1.48127 -4.16198 0.29699 -3.91611 -0.571125 -0.542838 0.0235224
115 1 5.79048 3.13764 -0.950851 -0.932742 0.818202 0.0439582 0.186888 -3.89973 -0.199935 -0.36674 0.238403
117 1 8.60233 3.08029 -0.861951 0.475293 0.415756 -1.302 0.182551 -3.88564 -0.0686703 0.3848 -0.83459
15 1 5.86915 3.09703 -4.16062 -1.1078 -3.23994 -0.243916 0.307441 -3.83667 -0.310677 -0.0825643 -0.209
8 1 9.98472 1.71462 -2.70623 1.02028 2.64764 -1.65962 0.459592 -3.90364 -0.00526049 0.058383 0.528284
9 1 11.3244 0.287262 -4.11278 -0.628437 1.37052 0.162777 5.70223 -3.89966 0.923914 -0.345623 -0.152548
10 1 12.8557 1.68831 -2.65046 -0.261261 2.58464 0.684826 0.15058 -3.88571 -0.291023 -0.0478806 0.159021
109 1 11.3921 0.306018 -0.967625 4.17545 -4.26001 3.01885 6.74785 -3.89374 -0.263631 -0.554289 -0.254346
119 1 11.4562 3.11085 -1.02744 -0.877516 0.612354 1.13148 0.166798 -3.93827 -0.402703 -0.543466 0.140079
12 1 1.52356 4.6359 -2.68425 1.18436 1.40208 1.05812 5.99726 -3.88938 0.313314 -0.343082 0.431981
14 1 4.34915 4.42365 -2.46841 -0.761965 1.11821 -1.53086 0.285089 -3.95212 -0.0827404 0.252447 -0.382567
22 1 1.54026 7.32431 -2.65409 0.529166 1.27637 -0.648244 6.02301 -3.87013 0.0221469 -0.261136 0.894044
23 1 3.01689 5.92797 -4.19336 4.21453 0.286138 -0.65637 5.88403 -3.8753 -0.581522 0.258316 -0.315914
24 1 4.35552 7.36387 -2.57675 0.718611 1.41969 0.425215 0.115415 -3.90086 -0.213678 0.319432 0.365059
121 1 0.132435 5.82793 -0.94382 -2.35864 3.10392 -0.471262 0.198625 -3.88625 -0.0443319 0.0530921 0.207539
123 1 3.01618 5.86763 -0.838883 1.00139 1.8653 -1.24788 5.99436 -3.90381 -0.127955 -0.0156549 0.114669
16 1 7.14135 4.5226 -2.49176 0.603539 0.154603 0.133915 0.170786 -3.93686 -0.00733483 -0.307992 -0.467911
25 1 5.70759 5.92495 -4.09387 -0.827089 1.1553 2.35682 5.20772 -3.94685 0.298466 -0.449927 -0.447486
26 1 7.1412 7.16975 -2.63134 -0.0337704 2.62343 0.778117 5.39048 -3.84344 -0.318624 0.978443 0.274417
125 1 5.74127 5.95799 -0.896088 -0.136011 -2.75282 -0.154075 0.139855 -4.01602 -0.227198 -0.0464097 0.0489385
127 1 8.57446 5.88387 -1.04529 -1.51658 -3.67076 0.00771245 0.422428 -3.88305 -0.0958865 -0.0213875 0.61816
18 1 10.0587 4.47472 -2.57513 2.01504 1.15568 0.108705 0.22483 -3.93036 -0.260606 0.178031 -0.00461812
20 1 12.7939 4.54238 -2.6122 -0.022531 3.00342 -1.17168 0.0671835 -3.98252 0.0783935 0.188399 -0.0525735
28 1 10.1169 7.35391 -2.47683 1.08986 -1.21663 1.80841 5.6918 -3.90449 -0.50615 -0.214132 -0.336194
29 1 11.4127 5.98723 -4.20413 1.3822 1.47477 -0.555896 0.054912 -3.94329 -0.371377 -0.0811206 -0.0582377
30 1 12.8531 7.28188 -2.50813 0.362699 -0.519128 0.486825 0.140727 -3.95031 0.0265952 0.187977 0.437502
129 1 11.3642 5.90889 -0.888213 -0.995542 1.01394 2.2528 0.116207 -3.98982 0.0291478 0.00604835 -0.250694
32 1 1.48279 10.1923 -2.65131 2.66336 -1.18469 0.933482 0.257048 -4.00001 0.125455 -0.201283 0.497074
34 1 4.32744 10.195 -2.6503 -3.42019 -1.92301 1.41173 0.209884 -3.90821 -0.180008 -0.0209791 0.562729
43 1 2.92107 11.628 -4.19905 2.17426 0.782241 3.50485 0.127898 -4.00418 0.23347 -0.282493 -0.295653
133 1 2.87707 8.77788 -0.906987 -1.44944 0.975575 0.710255 0.0948247 -3.83498 0.346818 -0.21689 0.0426826
141 1 0.146359 11.6297 -1.03323 -2.20193 -7.04944 -1.51669 0.356844 -3.96134 0.137831 -0.109994 0.248563
143 1 2.92416 11.521 -0.933045 -0.572232 1.1909 1.77002 0.17197 -3.98635 -0.242273 0.0662288 -0.320548
36 1 7.17897 10.1662 -2.52455 0.10168 3.47717 0.174941 0.178342 -3.84274 -0.250295 -0.272033 -0.0486373
47 1 8.63625 11.4798 -4.10978 -1.46078 2.66256 0.234251 0.308597 -3.92059 -0.0635989 -0.347267 -0.4639
135 1 5.71447 8.72482 -0.822759 -0.880733 0.590278 -0.109653 5.91291 -3.86068 0.344593 -0.239531 -0.33575
137 1 8.61908 8.74613 -1.0046 -4.19951 1.4167 -2.48788 0.394912 -3.93111 0.0813125 -0.209897 -0.40749
145 1 5.78797 11.4174 -0.930178 0.913579 -3.10787 0.676852 5.93602 -3.88401 0.0069576 0.211373 0.226911
147 1 8.63173 11.5707 -0.81662 -2.52053 -2.66134 -2.016 0.208568 -3.93 -0.60046 0.250704 -0.946644
37 1 8.64539 8.6808 -4.07679 -0.410704 1.96136 0.795798 5.62477 -3.97094 -0.340497 0.0770572 0.058613
41 1 14.1834 11.5242 -4.11412 -1.35835 -5.95404 3.83557 0.269405 -3.95274 -0.314344 0.319363 -0.210953
131 1 14.189 8.78043 -0.799657 -1.59748 2.05417 3.03081 0.451881 -3.84622 0.393336 -0.546183 -0.30066
38 1 10.1092 10.2499 -2.44885 0.647054 3.02786 -2.05404 0.505468 -3.94358 -0.577996 -0.777145 0.308998
39 1 11.3428 8.78317 -4.16583 2.80774 -0.622395 -1.00191 0.225036 -3.93074 0.26134 -0.079384 0.108219
40 1 12.8549 10.1114 -2.4295 -1.75728 -0.634733 -0.267602 0.271151 -3.92822 0.0964866 -0.156716 -0.254401
139 1 11.4119 8.69776 -0.836914 -0.425376 2.4171 -0.0430739 0.116498 -3.99171 0.121165 0.508835 -0.514645
149 1 11.4267 11.5446 -0.835937 -0.904464 -0.906018 0.248794 0.187404 -3.95205 -0.0984318 0.28033 -0.113194
49 1 11.351 11.4979 -4.13415 -3.94296 -1.72452 -3.57845 0.149336 -3.89502 0.0854966 0.182516 -0.174356
42 1 1.60077 12.9976 -2.66962 -0.841826 -0.173751 0.753914 5.52297 -3.91764 -0.381857 0.0695043 0.433038
44 1 4.30049 12.9516 -2.68647 -1.17519 0.372824 -0.13007 6.30465 -3.98253 0.075656 0.144788 0.155987
52 1 1.58776 15.7356 -2.41486 -0.585983 1.26946 1.71295 5.33662 -3.78283 -0.356285 0.176676 -0.561029
54 1 4.38463 15.6552 -2.58046 0.269637 0.959657 1.9614 5.97004 -3.96762 -0.37218 0.36885 -0.109202
153 1 2.9946 14.2978 -0.918478 -3.03426 -0.361765 3.65674 0.170523 -3.89317 -0.62133 -0.00133266 -0.22242
46 1 7.13899 12.8477 -2.60776 -0.042375 -0.703018 -2.37022 5.42256 -3.89534 -0.455212 0.236113 0.0270727
56 1 7.08452 15.7726 -2.66825 0.19616 0.505449 -1.21975 0.280925 -3.97934 0.429673 -0.281672 -0.137967
155 1 5.76502 14.3443 -0.981637 -0.699273 2.50818 -2.71856 0.105953 -3.92141 0.167933 0.0618798 0.0592484
157 1 8.53251 14.4644 -0.888327 1.77519 1.9958 -4.01974 5.38292 -3.90792 -0.155192 -0.0800866 0.02838
57 1 8.49816 14.3386 -4.06776 5.27468 2.46447 0.151665 0.573516 -3.8099 0.208889 0.363851 -0.840872
51 1 14.0057 14.3518 -4.22334 5.08997 3.62125 -2.07853 9.86682 -3.83473 0.990427 -0.0455061 -0.145061
151 1 14.2009 14.4155 -0.90916 -4.71089 2.01634 -0.85659 0.13288 -3.83346 -0.0785901 -0.00262693 0.155698
48 1 9.93985 13.0563 -2.55151 2.86016 2.34417 0.701272 5.42039 -3.91746 0.463659 -0.897397 0.291545
50 1 12.7181 12.9904 -2.55451 0.559624 -1.36974 -0.820506 0.191703 -3.92103 0.126177 -0.340178 0.346272
58 1 9.99316 15.7186 -2.57153 -3.3381 -1.51398 5.38263 0.187981 -3.97522 0.0623359 0.0261139 -0.110618
60 1 12.7967 15.7437 -2.56528 1.53771 1.90327 -4.70531 0.116791 -3.98273 -0.258026 0.238679 0.42417
159 1 11.3491 14.3264 -0.853598 -0.265735 -1.65506 -3.98071 0.157831 -3.93018 0.435035 0.0590865 0.194491
62 1 1.43944 18.5161 -2.52587 0.272627 0.831543 -0.200207 0.11887 -3.88087 0.41761 0.135853 -0.465634
64 1 4.38586 18.6552 -2.52125 1.24428 1.0664 2.86252 5.55482 -3.89167 -0.325826 -0.40271 -0.151478
163 1 2.94245 17.1558 -1.03471 0.341627 2.40032 0.506019 0.434432 -3.91236 0.479939 0.351117 0.344236
171 1 0.141802 19.9783 -0.812363 -0.0590841 -1.37942 4.27312 0.185787 -3.98354 -0.284699 -0.0135667 -0.217298
173 1 2.89555 19.9823 -0.94282 0.785649 -1.23368 2.3689 0.154405 -3.96537 -0.714007 -0.468022 0.556397
66 1 7.24355 18.6165 -2.52211 2.75597 -4.35103 0.905848 5.02134 -3.96718 -0.40535 0.0365094 -0.198822
67 1 8.57677 17.1461 -4.1971 -4.30079 -3.56988 1.31798 0.0496401 -4.00908 -0.139835 0.16674 0.227886
165 1 5.78304 17.093 -0.991624 1.97311 1.99329 -0.167527 0.252142 -3.91952 -0.224686 -0.0438856 -0.159233
167 1 8.56005 17.078 -1.05039 1.63712 1.01306 -0.622391 4.95441 -3.95234 0.375478 -0.0224557 0.747851
175 1 5.70632 20.007 -0.914243 -3.42076 -2.85137 2.01629 0.140458 -3.93194 0.181137 0.0102537 0.322076
177 1 8.58858 20.043 -0.687869 -1.05917 0.80188 -0.731301 5.4395 -3.88552 -0.0772662 -0.518536 -0.84631
75 1 5.71713 19.9361 -4.21341 -4.53949 -0.9021 2.29786 6.51314 -3.91061 0.0212591 -0.081655 -0.583818
65 1 5.67248 17.193 -4.17142 -1.31158 -3.63153 -0.620776 0.350052 -3.94685 0.170166 -0.207632 0.0977801
161 1 14.1852 17.2046 -0.806602 -8.06951 -0.86164 0.0732044 0.234195 -3.99282 -0.219029 0.177756 -0.363101
68 1 9.83757 18.5862 -2.49309 1.01621 0.95189 3.77626 5.62705 -3.94517 0.550837 0.705343 -0.130858
70 1 12.7582 18.5098 -2.53765 -2.75978 -0.241021 0.901339 0.161908 -3.84222 0.472792 0.535026 0.15284
169 1 11.4357 17.1907 -0.925857 -0.050047 0.778513 1.36961 0.115522 -3.9084 -0.267307 0.141046 0.00803453
179 1 11.4548 19.9395 -0.831792 0.478562 4.61523 -0.247094 6.23381 -3.94418 -0.445617 0.142722 -0.457544
69 1 11.3235 17.1806 -4.10736 2.51938 -0.439877 2.89062 5.76722 -3.9045 0.258996 -0.0406222 -0.559871
71 1 14.189 20.001 -4.10002 -3.02828 1.71166 0.793185 0.324578 -3.80993 0.00112667 -0.306658 -0.0397983
61 1 14.2026 17.0274 -4.1444 -2.79754 0.110739 5.17862 0.314483 -3.8605 0.0399091 0.173515 0.0406072
72 1 1.54936 21.3951 -2.62867 2.3338 -3.4761 -2.56089 6.01278 -3.9898 -0.311103 -0.0922627 -0.0949381
74 1 4.24289 21.3195 -2.48606 -0.775897 2.76848 -0.309503 0.399661 -4.05853 0.51575 0.218312 -0.409613
82 1 1.5098 24.075 -2.7084 -0.197856 1.54937 -4.05427 0.310128 -3.96537 -0.308831 0.633349 -0.150857
84 1 4.24694 24.1216 -2.54732 1.75243 2.83472 -4.12876 5.36411 -3.88976 0.256079 0.281674 -0.0196732
181 1 0.128659 22.763 -0.982436 -3.03311 -1.67311 -0.629939 0.0494721 -3.97266 -0.0360236 0.0270646 -0.358271
183 1 2.89382 22.7594 -1.02904 0.572942 -1.11899 -0.365379 0.181169 -4.03229 -0.353493 0.448985 0.506963
76 1 7.14056 21.2635 -2.5761 -0.691281 0.193514 1.05787 5.63587 -3.79373 0.359667 0.448859 0.323114
86 1 7.25436 24.2668 -2.57322 -2.43118 3.29649 -1.15762 5.99982 -3.8054 0.203575 -0.163973 -0.24529
185 1 5.72509 22.8979 -1.02348 3.67767 -2.14848 -3.35625 5.73374 -3.95706 -0.0884799 -0.592456 0.163817
187 1 8.47118 22.692 -0.835459 -0.732136 -0.532565 -1.73565 5.49309 -3.91458 0.129979 -0.197485 -0.136923
78 1 9.92402 21.3232 -2.63699 -2.14879 -1.2859 1.20999 0.240933 -3.91865 -0.140879 0.133153 0.917448
80 1 12.7264 21.3466 -2.55476 -2.02506 0.894117 1.33119 0.0662232 -3.88973 0.226328 -0.0465337 -0.355844
88 1 9.99398 24.1702 -2.5285 -1.34963 2.3224 -3.76156 0.221203 -3.88273 -0.04912 -0.145307 -0.0908325
90 1 12.8226 24.1983 -2.67329 -3.32555 -1.34099 0.789537 0.191312 -3.85817 -0.538647 0.172352 0.514103
189 1 11.404 22.6532 -1.00226 1.1462 2.87937 3.03823 0.298384 -3.84071 0.117869 0.706195 0.0984429
92 1 1.49183 27.0716 -2.58782 -1.55268 0.823337 -0.21304 0.0705039 -3.87168 -0.0662542 0.070739 -0.211229
93 1 2.95679 25.6072 -4.20228 -2.98218 -1.24306 2.03838 0.184122 -3.87588 -0.0883834 -0.0879611 -0.247016
94 1 4.31233 27.0701 -2.41461 -2.42482 -0.468398 -1.32983 0.747871 -3.8726 -0.213907 0.224116 -0.562598
193 1 2.87926 25.4829 -1.01281 -1.0862 0.475835 1.41936 5.77553 -3.89293 -0.286827 0.530452 -0.154798
5 1 5.72241 28.2956 -4.13545 2.69086 -0.906142 0.0342517 5.28538 -3.91602 0.00664304 0.291197 -0.240579
107 1 8.62684 28.3911 -0.895298 1.62718 -2.83475 -3.52836 5.87672 -3.98294 -0.315851 0.77244 -0.451976
96 1 7.19496 27.0059 -2.58539 3.8854 -2.09663 -3.2721 0.0407156 -3.99258 0.0940386 0.204013 0.467766
195 1 5.7699 25.6353 -0.996345 -1.7019 -1.17403 1.74296 6.10682 -3.8354 0.209551 0.042423 0.356105
197 1 8.65402 25.6862 -0.938466 -0.592902 -0.620959 0.00800132 0.332933 -3.98497 -0.600866 -0.154152 -0.241436
7 1 8.51249 28.4072 -4.11233 0.305773 -1.36188 3.04787 0.370952 -3.92302 -0.297478 -0.104693 -0.670047
191 1 14.1954 25.5315 -0.986233 -0.0885336 -4.4938 -0.48509 0.210262 -3.85068 0.271098 0.472615 -0.523999
98 1 9.85719 27.0277 -2.63389 2.60699 4.64685 0.62246 5.72773 -4.01291 0.695924 0.174352 0.123471
100 1 12.8111 27.1397 -2.57374 0.688756 2.41483 -3.36628 0.112571 -3.89531 -0.152627 -0.0868045 -0.406362
199 1 11.3947 25.7747 -0.936739 -1.77748 -0.753815 0.440887 5.5679 -3.85038 0.519488 -0.262616 -0.510339
99 1 11.3966 25.6653 -4.15549 -3.11862 -0.640777 0.494149 0.145873 -3.93088 -0.0737557 0.0366836 -0.277446
102 1 1.43258 1.58866 0.738004 7.38627 -3.29026 1.48818 0.301853 -3.98544 0.214791 0.235911 0.363181
104 1 4.40471 1.70471 0.63966 -2.62904 -0.431866 -2.50035 0.240711 -3.87595 -0.262059 -0.0906911 -0.0506389
202 1 1.64591 1.56967 3.8716 2.02744 3.5456 -1.59179 4.85142 -4.00492 -1.0072 0.562488 0.0106989
203 1 2.94499 0.259696 2.30643 -1.3304 -3.48688 0.0854903 0.132419 -4.01332 0.247781 -0.237582 -0.738872
204 1 4.18458 1.68524 3.96008 -0.935437 1.48785 2.63114 10.1114 -3.95101 1.07025 -0.0675041 0.0499756
213 1 2.88677 3.08084 2.2691 -2.28947 -0.845795 -1.07431 0.37448 -3.95663 0.388946 0.0367619 0.119715
106 1 7.15632 1.63052 0.623242 0.736671 -1.16949 0.0239501 0.260669 -4.00438 0.449565 0.17171 0.658791
205 1 5.64874 0.299036 2.15993 2.33469 0.995414 0.291621 9.5394 -3.84868 0.363644 -0.480599 0.648208
206 1 7.2548 1.68985 3.91812 -1.46106 -1.55409 1.7364 5.02149 -3.8946 0.0319464 -0.766859 0.120163
207 1 8.58474 0.236208 2.38905 1.31666 3.04051 1.49325 0.163557 -3.91639 0.0660068 0.200529 -0.448733
215 1 5.78167 2.95842 2.44612 -1.49422 -2.50707 3.51511 0.55228 -3.90003 -0.555059 0.153627 -0.133353
217 1 8.60442 3.0921 2.33166 -1.80041 2.92479 -5.24384 0.124231 -3.98465 0.0447079 -0.188259 0.311103
201 1 14.2143 0.277593 2.39301 -0.76465 1.66164 -3.30675 0.334737 -3.94713 -0.508177 0.0432201 -0.093042
211 1 14.1953 3.09372 2.45168 0.131749 -3.47244 0.658656 0.29753 -3.86968 0.0922838 -0.267724 -0.127366
108 1 9.98023 1.81548 0.761507 1.78008 -0.0382443 0.481447 5.88145 -3.83836 0.194782 -1.1109 0.195266
110 1 12.7567 1.63776 0.66352 0.143622 0.261967 0.471904 0.168096 -3.82488 0.0543501 -0.0384481 0.156177
219 1 11.4042 3.08595 2.35864 2.96876 -3.6 -0.306264 0.0669996 -3.88698 0.0112796 0.0018664 0.378643
112 1 1.47335 4.44722 0.828915 -2.08488 5.53109 1.88305 0.260573 -3.89708 0.228646 0.794888 -0.259992
114 1 4.45714 4.53943 0.842401 0.408107 -1.46821 1.68028 5.41979 -3.95901 -0.404167 -0.158306 -0.539566
122 1 1.5387 7.19477 0.793243 -2.178 2.10286 -1.52883 0.270459 -3.81679 -0.488973 0.422233 0.215981
124 1 4.30599 7.3213 0.768623 -1.70609 -0.894295 0.386355 0.162404 -3.90903 -0.0697964 0.433713 0.121544
223 1 3.00176 5.86832 2.40149 -2.9209 -3.41332 -1.19244 0.120827 -3.94548 -0.159639 0.017894 0.530192
116 1 7.08446 4.43511 0.769084 -0.717838 -0.661302 1.69127 5.5356 -3.92276 0.692584 0.053601 0.00496515
126 1 7.33953 7.39572 0.746258 1.37971 -3.46356 0.697126 5.75388 -3.82415 -0.466359 -0.141287 -0.0777544
216 1 7.15048 4.45322 3.87314 0.663868 1.20315 1.59813 0.370167 -3.98923 -0.220753 0.161915 0.345931
225 1 5.7941 6.05956 2.30916 0.299468 -1.75276 -1.18853 5.81421 -3.88933 0.297 -0.352721 0.489635
227 1 8.61587 5.8789 2.3163 -0.532809 -0.371899 0.126652 0.144261 -3.91558 -0.204175 0.186392 0.0682595
221 1 14.1524 5.86373 2.41674 0.796103 -1.93786 -0.0692733 0.136291 -3.94589 0.130198 0.408166 -0.118428
118 1 10.0291 4.4796 0.728947 -2.00022 0.251406 -1.34662 5.77322 -3.99813 -0.130612 -0.215364 -0.299294
120 1 12.7727 4.51546 0.65971 -2.93314 -0.0391201 0.674702 0.126704 -3.9408 -0.16808 -0.337725 0.253025
128 1 10.0124 7.32217 0.676189 -2.7644 2.28321 3.1472 5.8366 -3.9856 -0.291804 -0.20895 0.150679
130 1 12.7448 7.26336 0.682593 -1.8326 -3.86476 -3.53257 0.177311 -3.95233 0.15529 -0.148744 0.257147
218 1 9.92391 4.44006 3.99501 2.54663 2.02038 1.45237 0.0905161 -3.96361 0.161471 0.340595 -0.200037
220 1 12.7806 4.44772 3.98612 -0.879614 -1.25736 1.20844 0.0669181 -3.83917 -0.391046 -0.204799 0.365999
229 1 11.2652 5.91426 2.39484 0.58398 1.74186 -1.1864 5.44859 -3.96377 0.887351 -0.316026 0.251047
230 1 12.8446 7.35538 3.90504 2.31232 0.678649 1.21522 0.285591 -3.92377 -0.652767 -0.367428 0.362044
132 1 1.49806 10.2454 0.639528 0.926583 1.77752 2.20689 0.212421 -3.92685 -0.233189 -0.485635 0.620328
134 1 4.33421 10.2257 0.788066 -1.95039 -2.01599 -1.69927 5.69011 -3.88745 -0.165065 -0.717068 0.199727
233 1 2.86938 8.7146 2.41955 -0.683116 0.194601 5.31636 0.150581 -3.81813 0.57513 -0.372928 -0.365675
234 1 4.30212 10.2221 3.99278 -0.621179 0.157015 -0.123602 5.69455 -3.89499 0.166804 -0.241525 0.28791
241 1 0.149986 11.5192 2.31071 -2.41095 0.904273 -0.0212207 0.0974724 -3.96905 0.0346241 0.130916 -0.0395525
243 1 2.87755 11.525 2.25351 -0.234391 0.744033 0.670144 0.272057 -3.94422 0.342091 -0.17556 0.645434
136 1 7.34978 10.1327 0.763537 0.629619 0.98562 1.20116 5.2296 -3.99142 -0.373948 0.172229 -0.0308806
235 1 5.87066 8.81598 2.27948 0.465343 -1.43871 1.4062 0.410085 -3.91928 -0.632689 -0.624595 0.435569
237 1 8.63235 8.75913 2.52134 2.56455 0.935182 0.542097 0.420605 -4.02445 -0.0158026 -0.0720511 -0.657603
245 1 5.87987 11.5851 2.3496 0.240801 -0.541356 -0.243051 0.427007 -3.91487 -0.6677 -0.27523 -0.140741
247 1 8.6244 11.498 2.46811 0.432483 -3.51449 2.45946 6.11313 -4.00752 -0.371409 0.720872 -0.264417
231 1 14.2058 8.74973 2.30959 -0.187028 1.52542 1.17023 0.0890336 -3.95337 0.518109 -0.31556 -0.379386
138 1 9.92992 10.142 0.690805 -1.64946 -2.47072 4.24093 5.49665 -4.011 0.744052 -0.300251 0.153752
140 1 12.8378 10.2224 0.699676 -3.06779 0.590986 0.953237 0.207054 -3.97001 -0.327185 -0.497357 0.137298
239 1 11.364 8.67474 2.3176 1.07823 -1.10089 5.00007 0.105789 -3.95146 0.159815 -0.0351817 -0.293229
240 1 12.788 10.0949 3.829 0.473313 1.12475 -2.36237 10.5876 -3.87023 0.474035 0.391704 0.442208
249 1 11.3994 11.5636 2.45639 0.00818624 4.09037 -1.73351 0.278357 -3.95205 -0.0269635 -0.291487 -0.0447907
142 1 1.52181 13.0509 0.811405 -1.28477 -4.17543 2.9049 0.385043 -3.93669 0.302145 -0.050174 -0.0207849
144 1 4.29805 12.8216 0.628256 1.81958 -2.20134 0.0142737 5.11338 -3.90592 0.513414 0.850477 0.230163
152 1 1.51339 15.8576 0.785053 -0.669006 2.84052 -0.820189 5.62609 -4.02417 0.427044 -0.62698 -0.215679
154 1 4.25725 15.7179 0.691102 2.46855 -1.35996 -1.82568 0.313586 -3.90574 0.193434 0.527305 -0.3736
242 1 1.53992 12.9165 3.9591 0.280113 3.4737 -1.1283 0.132789 -3.97055 0.356172 -0.0575124 -0.281606
244 1 4.24982 12.7782 3.98843 2.14938 -0.0921022 -0.749942 5.63573 -3.90069 0.144172 0.588422 -0.0191867
251 1 0.128475 14.4623 2.4193 2.68999 -0.1114 0.508103 0.238783 -3.92259 -0.275968 0.0738261 -0.400484
252 1 1.63436 15.7834 3.86262 -3.12021 0.366244 0.726554 4.83236 -3.87616 0.0953305 0.00194487 0.298615
253 1 3.02926 14.3678 2.39151 0.643288 -2.70259 -2.00417 0.373596 -3.92224 -0.231398 -0.137924 -0.0880089
146 1 7.13468 12.9886 0.706931 1.04428 0.1527 -2.62964 0.134647 -3.81216 0.267702 -0.493395 0.0918705
156 1 7.1141 15.8395 0.736594 -5.45427 -4.00032 2.42238 0.307795 -3.9358 0.42526 -0.272054 -0.040425
255 1 5.79332 14.3612 2.3002 0.949383 2.2935 -3.25327 6.26095 -3.9021 -0.16552 0.0859802 0.257216
256 1 7.19239 15.8423 3.88645 -0.861153 0.781607 -0.146585 0.41608 -3.98239 0.374026 -0.361077 0.388136
257 1 8.60857 14.4287 2.40964 -2.00567 3.54744 2.76289 0.0778428 -3.90043 0.019232 -0.358136 -0.412508
148 1 10.0789 12.8625 0.814144 2.53119 -0.204599 1.59625 5.45153 -3.89268 -0.511678 0.19787 -0.394898
150 1 12.8144 12.9078 0.776842 0.842405 -1.04171 -0.584461 0.168305 -3.98494 0.622321 0.151817 -0.260133
158 1 10.0599 15.8093 0.795386 1.95172 -4.28031 -2.67566 0.276161 -3.85991 0.137904 -0.497066 -0.0242911
160 1 12.7974 15.8078 0.685859 2.05154 2.79304 -0.0709358 0.216835 -3.91345 0.352266 -0.487707 0.431228
250 1 12.9049 12.9601 3.93626 1.45982 -1.9964 -1.75047 0.293343 -3.95053 -0.161033 -0.0317226 0.0243055
259 1 11.5154 14.2983 2.34789 2.36546 0.76793 -0.871017 0.272171 -3.97018 -0.330039 0.257448 -0.0185103
162 1 1.61205 18.4318 0.720973 0.103087 0.473685 0.329909 5.35893 -3.92008 0.00536687 0.709057 -0.0974334
164 1 4.41893 18.6151 0.596088 -0.211573 3.22505 -5.20284 0.378604 -3.92466 -0.574244 -0.641829 -0.0257274
262 1 1.64124 18.6991 3.97602 -1.57751 0.894061 -4.43727 5.35791 -3.94922 -0.708194 -0.387739 -0.215399
263 1 3.02324 17.1738 2.33328 -2.37006 -0.133771 0.32695 0.282906 -3.97717 -0.33336 0.279096 0.474133
271 1 0.239882 19.931 2.23292 -2.9132 -1.24747 -1.34561 0.638552 -3.94452 -0.284336 -0.240553 0.431182
273 1 3.06119 20.0027 2.35088 0.40391 -0.0741893 3.19324 5.73695 -3.91857 -0.281 0.468076 -0.281074
166 1 7.16241 18.5363 0.70095 0.698547 0.150344 -2.49931 0.201706 -3.94055 -0.257839 0.0382771 0.245644
265 1 5.71847 17.1429 2.48137 -1.6126 -0.82668 -3.54668 4.88936 -3.9278 -0.244029 -0.0572394 -0.0891098
266 1 7.25348 18.553 3.88781 1.95445 3.37989 -0.145865 5.21383 -3.8533 -0.257305 0.168777 0.157466
267 1 8.63962 17.1234 2.26916 1.62128 1.24999 -1.44411 0.28666 -3.91903 -0.0371575 0.19041 0.0518208
275 1 5.66392 19.9514 2.35775 0.0670137 -1.38317 -3.87798 5.34432 -3.92307 0.334987 0.225473 0.0800651
277 1 8.52362 20.0544 2.34605 0.898333 -0.0775842 -0.479706 4.96829 -3.94436 0.208302 -0.109157 0.12223
261 1 14.1769 17.1487 2.43441 3.22524 -0.724689 1.23685 5.25525 -3.97244 0.381154 0.102221 -0.125233
168 1 9.9888 18.5753 0.747657 -3.61858 0.233632 -1.83299 0.235212 -3.89084 -0.335619 -0.222475 0.373518
170 1 12.8038 18.6463 0.863208 0.900172 4.64776 -2.52583 0.365227 -3.97339 0.26598 -0.610266 -0.0938936
269 1 11.4148 17.1891 2.54986 1.22914 3.37173 -1.05524 0.446111 -3.9317 0.255919 0.441441 -1.01088
270 1 12.909 18.7314 3.98176 -1.75346 -1.91228 -0.862528 5.66915 -3.87964 -0.468628 -0.166524 0.163928
279 1 11.3598 20.0486 2.32221 2.0114 -4.45816 0.994583 0.292055 -3.85892 -0.150287 -0.348946 0.439404
172 1 1.47279 21.4257 0.751036 2.33301 -0.225112 2.95214 0.292583 -3.94368 0.495934 0.312856 -0.142753
174 1 4.32705 21.4567 0.584049 -1.27528 -0.710527 -1.51037 0.30108 -3.93683 -0.204213 -0.283391 -0.150627
182 1 1.5749 24.1646 0.699175 -0.784188 -3.79054 -2.16947 0.0662001 -3.94802 -0.355601 0.25053 0.225838
184 1 4.3073 24.238 0.652678 -0.587332 0.565944 -1.32797 0.148946 -3.94599 0.132962 -0.368657 -0.433105
272 1 1.50093 21.4332 3.89416 -1.3891 0.701157 2.48604 0.408035 -4.00175 -0.0355846 -0.149392 0.211248
281 1 0.183488 22.7914 2.41599 -2.74019 0.616667 0.622568 0.176006 -3.91268 -0.158464 0.247344 -0.44334
283 1 2.92311 22.8102 2.43536 1.18139 2.06881 4.32688 0.200677 -3.87119 0.795661 0.186896 -0.501128
176 1 7.06694 21.3141 0.773586 -3.95137 -1.5893 -1.01736 0.405958 -3.97996 0.191832 0.4542 -0.186286
186 1 7.17879 24.1447 0.598632 2.78581 2.06017 1.88695 0.206101 -3.86606 -0.172387 0.612798 -0.0295345
285 1 5.85589 22.7635 2.2108 1.31531 1.02106 -0.50399 0.594346 -3.86088 -0.772055 0.299346 0.68658
287 1 8.6565 22.7436 2.26073 2.42 3.87829 -0.705154 11.172 -4.01011 -0.518512 0.161433 0.112824
178 1 9.99102 21.4199 0.657816 -1.13098 -1.50552 3.15931 0.26857 -4.00847 0.622846 -0.0269653 -0.0614786
180 1 12.8404 21.4228 0.801691 -0.471497 0.0061306 0.269058 0.327042 -4.04504 0.277316 0.162611 0.0260691
188 1 10.0407 24.0693 0.54284 -1.30348 -2.27273 0.479064 5.01724 -3.84585 -0.22957 1.14586 0.206365
190 1 12.925 24.1389 0.668966 -1.55903 -2.12372 1.13416 5.79877 -3.82583 -0.497725 0.138094 0.609409
280 1 12.8739 21.3633 3.90942 1.61778 1.13426 1.57654 5.81586 -3.94314 0.0390232 0.161528 -0.283905
289 1 11.3072 22.8471 2.35188 -3.96248 4.07387 -0.259648 5.29127 -3.95455 0.497111 0.0821903 0.255557
290 1 12.8777 24.1232 3.97018 1.06046 -1.98762 3.24564 0.243773 -3.95605 -0.080094 0.0334305 -0.00971492
192 1 1.54582 26.9795 0.734773 0.832332 -0.820942 0.130328 5.45063 -3.9377 0.201269 0.333135 -0.327375
194 1 4.33343 27.1078 0.67263 -1.61671 -3.20912 1.28134 0.257608 -3.91613 -0.410122 -0.399158 -0.764405
291 1 0.123486 25.6243 2.47923 -1.91934 -0.395923 -0.219087 0.431002 -3.88949 0.171336 -0.403104 -0.300569
292 1 1.58125 27.1181 3.87849 0.521729 -0.104332 -0.21211 5.52771 -3.9806 -0.0333379 -0.183087 -0.13443
293 1 3.0799 25.6086 2.32157 2.80973 1.17343 -0.298043 6.04425 -3.87425 -0.536712 0.148418 0.597095
294 1 4.2495 27.1204 3.9621 -1.17778 2.9951 1.58236 5.15242 -3.92275 0.370553 0.0174268 -0.179481
196 1 7.3038 27.0489 0.826179 3.37805 -2.98627 4.17109 5.02842 -3.87947 -0.621096 -0.189618 -0.78261
295 1 5.73558 25.636 2.29896 2.43808 0.681994 -1.51506 5.37386 -3.92104 0.142561 0.207992 0.298365
296 1 7.17419 27.0665 3.86747 0.309675 6.50899 -1.89168 0.271578 -3.87136 -0.31769 0.3094 -0.316316
297 1 8.56397 25.5256 2.34932 -0.134748 1.31643 -3.31811 0.36835 -3.89277 0.837856 -0.0892907 -0.0446995
209 1 11.3537 28.3011 2.42194 -0.393176 -1.47754 0.78913 6.13143 -3.79025 0.596345 0.721989 -0.254023
198 1 9.95313 27.0869 0.605454 0.689763 -0.698924 -1.31982 5.32466 -3.81286 0.439237 -0.267432 0.916631
200 1 13.0099 27.0067 0.663864 5.30296 -0.270392 0.651806 5.72484 -3.84117 -0.593229 0.17949 0.0309575
299 1 11.357 25.6421 2.39546 0.613569 6.18239 1.53807 6.47378 -3.78514 0.0784324 0.132879 -0.411153
301 1 0.190771 0.330155 5.49311 0.5675 -0.168496 -2.46061 5.0933 -3.98085 -0.0924231 -0.201909 0.57209
302 1 1.52998 1.64637 7.41676 -1.42736 -3.15682 0.972455 0.335918 -3.93192 -0.219598 -0.369729 -0.195684
303 1 2.87995 0.257353 5.65999 0.341516 -0.0404191 -2.60214 5.46651 -4.00108 0.26946 -0.366643 0.233352
304 1 4.29008 1.6221 7.24466 -4.04083 -0.468429 4.02966 0.163891 -3.86649 0.488174 0.8123 0.357434
311 1 0.149724 2.85167 5.65099 -1.74976 0.28104 0.763369 5.38804 -3.84821 -0.0977729 1.18609 -0.47024
313 1 2.89377 2.99568 5.52807 0.148637 -0.416692 -0.495992 5.50811 -3.85478 -0.452289 0.170641 0.365997
305 1 5.63949 0.272746 5.65531 -2.6762 0.601797 -1.53878 5.43722 -3.80842 0.933661 0.126319 -0.316472
306 1 7.16827 1.7968 7.2765 -0.497955 1.38302 -0.554626 6.03668 -3.871 -0.770613 -1.05487 0.201522
307 1 8.54451 0.339894 5.70344 2.06573 -1.47317 -0.377265 0.344876 -3.94131 -0.532403 -0.744914 0.128259
315 1 5.88369 2.98404 5.56463 0.746495 3.22544 0.384377 5.50482 -3.94939 -1.0238 0.588505 0.111519
317 1 8.5575 3.091 5.566 0.877774 1.33708 0.284955 5.77929 -4.06884 -0.520966 0.0706143 -0.159272
208 1 9.93587 1.5992 4.0149 -2.11946 3.54369 -4.60115 0.124829 -4.03497 0.0603506 0.295272 -0.247213
210 1 12.7168 1.62492 4.04568 1.93469 -2.84729 3.21644 0.364242 -3.90462 0.0484659 0.101354 -0.422421
308 1 9.85407 1.73124 7.22957 -3.32365 0.641461 0.348771 0.210486 -3.93759 0.456618 -0.338589 0.301226
309 1 11.427 0.271834 5.70116 2.261 -0.338001 1.59023 0.164574 -3.91648 -0.0072988 0.00597952 -0.441641
310 1 12.8338 1.67333 7.25262 -2.12593 2.9352 -1.91821 0.179382 -3.91527 -0.457919 -0.649433 0.34222
319 1 11.2832 3.0542 5.65928 1.40137 -1.12676 -0.599603 0.112022 -3.97172 0.433504 0.259099 -0.339977
212 1 1.5107 4.56417 4.0216 1.71349 1.1107 -0.37813 5.63669 -3.94003 -0.0735436 -0.624906 0.123195
214 1 4.35594 4.34938 4.04127 -3.60792 0.888428 1.10906 5.1349 -3.90282 0.174355 0.372235 -0.281405
222 1 1.54559 7.23945 3.99831 2.60978 -1.28947 -2.65909 5.63415 -3.95711 0.0175237 -0.116906 0.0612042
224 1 4.45542 7.31972 4.03727 2.28078 -2.16034 3.83898 0.31202 -3.89872 -0.727793 -0.0139009 -0.233733
312 1 1.51633 4.46751 7.20461 6.58074 -1.87872 -2.48992 0.257706 -3.9282 0.0794202 -0.332201 0.083085
314 1 4.38482 4.47065 7.32918 1.38421 -0.500902 1.94911 6.0079 -3.83179 -0.283542 0.0726511 -0.239688
322 1 1.50912 7.24612 7.18965 2.77664 -2.04083 2.3912 0.115202 -3.90605 -0.336821 -0.283349 -0.314
323 1 3.05231 5.91185 5.57984 -1.31866 2.39502 -0.268551 0.269445 -3.9219 -0.691146 -0.0062324 -0.011881
324 1 4.3708 7.29584 7.21962 1.4459 0.563605 -1.51929 0.134663 -3.94038 0.0337577 -0.22205 0.135471
226 1 7.22143 7.27669 4.00132 -1.92098 2.73055 -2.00716 0.113702 -3.96504 0.020492 -0.136085 0.37563
316 1 7.10763 4.57462 7.26088 2.31643 -3.52172 -0.258836 5.89311 -3.97163 -0.331947 -1.05304 0.217396
325 1 5.76431 5.8264 5.51739 -2.43851 2.57701 -2.10025 0.277873 -3.94434 0.192787 0.0245595 0.155429
326 1 7.19795 7.24786 7.16721 -1.71798 -0.00966545 0.572563 0.279198 -3.99913 -0.0108166 0.701889 -0.0580231
327 1 8.55272 5.78657 5.7354 -1.12912 -0.410511 1.0442 0.575085 -3.92195 0.197611 0.431994 -0.541746
228 1 9.92162 7.27115 4.08692 0.0778168 -0.255412 1.79302 0.274502 -3.93924 -0.00750946 -0.158018 0.20566
321 1 14.1448 5.82456 5.62202 4.06995 0.134137 -0.309495 0.202428 -3.92277 0.4113 0.424614 -0.520093
318 1 9.98504 4.43593 7.22379 1.75132 -4.65897 3.2673 0.0911816 -3.9749 -0.395596 0.61825 0.442989
320 1 12.7757 4.48205 7.23109 1.89733 -3.11783 2.82706 0.189834 -3.90058 -0.0184474 -0.686391 0.246108
328 1 10.0129 7.28399 7.0968 2.65819 -0.927283 -2.4793 4.80133 -3.92054 0.257284 0.341399 0.500287
329 1 11.4291 5.87426 5.60349 1.9858 -1.38951 -0.786356 0.077454 -3.9449 -0.113267 0.13593 -0.638606
330 1 12.8425 7.28945 7.25406 -1.97867 0.420953 -1.07444 0.0981659 -4.00232 0.220163 -0.252847 0.129046
232 1 1.56015 10.1641 4.01614 2.12226 0.0705619 -0.681687 0.225858 -3.98229 -0.448113 -0.247244 -0.12889