ITEM: TIMESTEP
60250
ITEM: NUMBER OF ATOMS
2000
ITEM: BOX BOUNDS pp pp pp
1.0838953229856951e-01 1.4221610467701321e+01
2.1677906459713903e-01 2.8443220935402643e+01
-1.2670849935217539e+00 5.8587084993521316e+01
ITEM: ATOMS id type x y z vx vy vz c_csym c_peratom fx fy fz
2 1 1.62332 1.66863 0.236916 -0.282889 -3.25185 -0.636516 0.277927 -4.06966 -0.405593 0.100443 -0.275983
4 1 4.35789 1.61575 0.164257 0.990702 -5.33602 3.45801 0.22743 -4.10017 0.235516 -0.0986519 0.768315
11 1 0.115605 3.14255 -1.21874 0.617832 -0.194419 3.50607 0.214727 -4.02372 0.0902808 -0.408238 0.0548923
101 1 0.126621 0.284403 1.69832 -1.57173 1.46596 2.1275 0.152027 -4.08398 -0.12976 0.130783 -0.224668
103 1 2.85007 0.270771 1.75834 0.287695 0.367304 -1.8153 0.240199 -3.97116 0.72555 -0.175611 -0.0651921
111 1 0.168447 3.08626 1.72496 -2.2925 0.592843 0.179022 0.131556 -4.10017 -0.0836671 -0.05751 0.099641
113 1 2.87763 3.13123 1.78084 -1.71434 2.42111 -1.1208 0.330756 -4.04382 -0.103693 -0.190076 0.156947
13 1 2.94284 3.10367 -1.24793 -0.0706192 -1.95523 0.774801 0.072788 -3.9928 -0.472954 0.343889 -0.0846691
6 1 7.17995 1.58532 0.230112 -1.53139 -1.81767 -2.43971 0.227402 -4.06451 0.271237 0.545811 0.174223
17 1 8.63608 3.25517 -1.1974 -1.24355 -0.0988133 -0.860341 5.0142 -4.03912 -0.586867 -1.0192 -0.252067
105 1 5.90739 0.22905 1.72643 0.812795 -1.48127 -4.16198 0.294373 -4.05465 -0.204382 -0.0438593 0.196119
115 1 5.79048 3.13764 1.71158 -0.932742 0.818202 0.0439582 0.18115 -4.02341 -0.354563 -0.414461 -0.152249
117 1 8.60233 3.08029 1.79249 0.475293 0.415756 -1.302 0.163088 -4.02969 -0.002581 0.054933 -0.821239
15 1 5.86915 3.09703 -1.20958 -1.1078 -3.23994 -0.243916 0.292321 -3.9769 -0.626022 0.344024 -0.140514
8 1 9.98472 1.71462 0.114038 1.02028 2.64764 -1.65962 0.391255 -4.02731 -0.712544 0.0821347 1.25327
9 1 11.3244 0.287262 -1.16605 -0.628437 1.37052 0.162777 0.394885 -4.02405 0.833661 -0.444846 -0.44904
10 1 12.8557 1.68831 0.16479 -0.261261 2.58464 0.684826 0.134685 -4.00461 -0.442603 0.430764 -0.00618261
109 1 11.3921 0.306018 1.69632 4.17545 -4.26001 3.01885 0.16826 -4.04618 -0.333782 -0.169175 -0.170583
119 1 11.4562 3.11085 1.64188 -0.877516 0.612354 1.13148 0.153045 -4.08009 -0.530284 -0.463159 0.0197075
12 1 1.52356 4.6359 0.134043 1.18436 1.40208 1.05812 0.56979 -4.02393 -0.0323014 -0.28263 -0.0155249
14 1 4.34915 4.42365 0.330479 -0.761965 1.11821 -1.53086 0.272343 -4.07573 0.163277 0.374793 -0.386877
22 1 1.54026 7.32431 0.161493 0.529166 1.27637 -0.648244 0.244333 -4.00536 0.0252971 -0.0407692 0.836973
23 1 3.01689 5.92797 -1.23938 4.21453 0.286138 -0.65637 0.223024 -4.00787 -0.16838 -0.122291 0.100068
24 1 4.35552 7.36387 0.231873 0.718611 1.41969 0.425215 0.107248 -4.00649 -0.51324 0.338501 0.28642
121 1 0.132435 5.82793 1.71798 -2.35864 3.10392 -0.471262 0.186165 -4.01006 -0.0727471 0.266432 0.10997
123 1 3.01618 5.86763 1.81348 1.00139 1.8653 -1.24788 0.255589 -4.0891 -0.0782598 -0.15353 -0.278059
16 1 7.14135 4.5226 0.309226 0.603539 0.154603 0.133915 0.154599 -4.03399 0.127554 -0.42392 -0.49812
25 1 5.70759 5.92495 -1.14883 -0.827089 1.1553 2.35682 0.321252 -4.10804 0.188066 -0.484914 -0.475378
26 1 7.1412 7.16975 0.182191 -0.0337704 2.62343 0.778117 4.99829 -3.92417 0.166952 1.01833 0.417731
125 1 5.74127 5.95799 1.76142 -0.136011 -2.75282 -0.154075 0.138151 -4.1636 -0.0157376 0.276532 0.165638
127 1 8.57446 5.88387 1.62564 -1.51658 -3.67076 0.00771245 0.366425 -4.05878 0.320726 -0.158664 0.462634
18 1 10.0587 4.47472 0.233351 2.01504 1.15568 0.108705 0.212089 -4.03429 0.208142 0.0777646 0.0308237
20 1 12.7939 4.54238 0.199617 -0.022531 3.00342 -1.17168 0.0602939 -4.09129 0.10036 0.175041 0.0797737
28 1 10.1169 7.35391 0.322808 1.08986 -1.21663 1.80841 0.404346 -4.00635 -0.525685 -0.45968 0.0982045
29 1 11.4127 5.98723 -1.24918 1.3822 1.47477 -0.555896 0.0537241 -4.0885 -0.296878 -0.377062 -0.571675
30 1 12.8531 7.28188 0.294323 0.362699 -0.519128 0.486825 0.135659 -4.1014 -0.248813 0.780301 -0.112156
129 1 11.3642 5.90889 1.76859 -0.995542 1.01394 2.2528 0.109232 -4.08271 0.345176 0.129567 -0.279753
32 1 1.48279 10.1923 0.16402 2.66336 -1.18469 0.933482 0.22459 -4.11773 -0.0624672 -0.160654 0.215613
34 1 4.32744 10.195 0.164942 -3.42019 -1.92301 1.41173 0.189112 -4.04903 -0.162327 -0.23645 0.49288
43 1 2.92107 11.628 -1.24456 2.17426 0.782241 3.50485 0.115803 -4.08354 -0.273568 -0.756925 -0.363186
133 1 2.87707 8.77788 1.7515 -1.44944 0.975575 0.710255 0.0906209 -4.02641 0.159485 -0.0421124 -0.14413
141 1 0.146359 11.6297 1.63662 -2.20193 -7.04944 -1.51669 0.310444 -4.09601 0.267668 0.27954 0.425666
143 1 2.92416 11.521 1.72779 -0.572232 1.1909 1.77002 0.161953 -4.10346 -0.322497 0.0633069 -0.422075
36 1 7.17897 10.1662 0.279381 0.10168 3.47717 0.174941 0.164989 -3.96668 -0.0712649 -0.179306 0.197501
47 1 8.63625 11.4798 -1.16331 -1.46078 2.66256 0.234251 0.281918 -4.04688 -0.337206 0.0684101 -0.602398
135 1 5.71447 8.72482 1.82816 -0.880733 0.590278 -0.109653 0.285945 -4.04452 0.694503 0.298567 -0.32512
137 1 8.61908 8.74613 1.66267 -4.19951 1.4167 -2.48788 0.358479 -4.07905 -0.460732 -0.495353 -0.405528
145 1 5.78797 11.4174 1.7304 0.913579 -3.10787 0.676852 0.314277 -4.03359 0.0036642 0.675042 0.230938
147 1 8.63173 11.5707 1.83375 -2.52053 -2.66134 -2.016 0.18758 -4.05918 -0.276506 0.659957 -0.819965
37 1 8.64539 8.6808 -1.13329 -0.410704 1.96136 0.795798 0.361983 -4.10887 -0.71366 0.32346 -0.25377
41 1 14.1834 11.5242 -1.16726 -1.35835 -5.95404 3.83557 0.241928 -4.04461 -0.45659 0.434079 0.00155357
131 1 14.189 8.78043 1.84918 -1.59748 2.05417 3.03081 0.394105 -3.98456 0.814073 -0.425164 -0.204861
38 1 10.1092 10.2499 0.348272 0.647054 3.02786 -2.05404 0.493805 -4.0553 -0.973274 -0.397353 0.539337
39 1 11.3428 8.78317 -1.21433 2.80774 -0.622395 -1.00191 0.223452 -4.06395 0.326475 0.137584 -0.0368554
40 1 12.8549 10.1114 0.365889 -1.75728 -0.634733 -0.267602 0.240624 -4.06881 0.0816176 -0.220175 -0.771885
139 1 11.4119 8.69776 1.81528 -0.425376 2.4171 -0.0430739 0.108575 -4.07994 -0.124606 0.481328 -0.478603
149 1 11.4267 11.5446 1.81617 -0.904464 -0.906018 0.248794 0.174974 -4.05581 -0.154578 0.326065 -0.243544
49 1 11.351 11.4979 -1.18549 -3.94296 -1.72452 -3.57845 0.14361 -4.01911 0.22621 0.347649 -0.222434
42 1 1.60077 12.9976 0.147359 -0.841826 -0.173751 0.753914 0.423134 -4.05553 -0.647361 -0.0553515 0.313264
44 1 4.30049 12.9516 0.13202 -1.17519 0.372824 -0.13007 0.108447 -4.12445 0.684421 0.150475 0.422388
52 1 1.58776 15.7356 0.379207 -0.585983 1.26946 1.71295 0.672707 -3.96289 -0.789407 0.162697 -0.974239
54 1 4.38463 15.6552 0.228499 0.269637 0.959657 1.9614 0.269428 -4.06891 -0.594828 0.116572 0.106179
153 1 2.9946 14.2978 1.74105 -3.03426 -0.361765 3.65674 0.16514 -3.99097 -0.461604 -0.174779 0.463426
46 1 7.13899 12.8477 0.203654 -0.042375 -0.703018 -2.37022 0.223516 -4.01471 0.0578302 0.231047 0.424779
56 1 7.08452 15.7726 0.148608 0.19616 0.505449 -1.21975 0.249086 -4.06909 0.12863 -0.30461 0.00835035
155 1 5.76502 14.3443 1.68357 -0.699273 2.50818 -2.71856 0.103155 -4.06268 0.23856 -0.388705 0.331734
157 1 8.53251 14.4644 1.76849 1.77519 1.9958 -4.01974 5.02835 -4.07355 -0.0982775 -0.509825 -0.143909
57 1 8.49816 14.3386 -1.12507 5.27468 2.46447 0.151665 0.492093 -3.96704 -0.0319677 -0.129837 -0.919447
51 1 14.0057 14.3518 -1.26666 5.08997 3.62125 -2.07853 4.73532 -3.97313 1.38465 -0.59225 0.0546726
151 1 14.2009 14.4155 1.74953 -4.71089 2.01634 -0.85659 0.121472 -3.9829 0.095327 -0.544662 -0.134776
48 1 9.93985 13.0563 0.254847 2.86016 2.34417 0.701272 0.269769 -4.05092 0.61267 -0.59831 0.233527
50 1 12.7181 12.9904 0.252118 0.559624 -1.36974 -0.820506 0.176772 -4.05636 -0.197145 -0.229481 0.0114984
58 1 9.99316 15.7186 0.236626 -3.3381 -1.51398 5.38263 0.169987 -4.06622 -0.036191 0.441404 0.145465
60 1 12.7967 15.7437 0.242317 1.53771 1.90327 -4.70531 0.111479 -4.05783 -0.35529 0.0497126 0.422907
159 1 11.3491 14.3264 1.80009 -0.265735 -1.65506 -3.98071 0.151409 -4.05501 0.230381 0.311682 -0.43425
62 1 1.43944 18.5161 0.278179 0.272627 0.831543 -0.200207 0.115815 -4.01393 0.078095 0.31247 -0.605039
64 1 4.38586 18.6552 0.282385 1.24428 1.0664 2.86252 5.12084 -4.00819 -0.315189 -0.877542 0.0637255
163 1 2.94245 17.1558 1.63526 0.341627 2.40032 0.506019 0.387545 -4.02025 0.711675 0.413301 0.289278
171 1 0.141802 19.9783 1.83762 -0.0590841 -1.37942 4.27312 0.168683 -4.1103 -0.146912 -0.0273094 -0.332736
173 1 2.89555 19.9823 1.71889 0.785649 -1.23368 2.3689 0.14537 -4.09379 -0.807989 0.0484992 0.507628
66 1 7.24355 18.6165 0.281602 2.75597 -4.35103 0.905848 5.37761 -4.13782 -0.43083 0.137881 0.304801
67 1 8.57677 17.1461 -1.24278 -4.30079 -3.56988 1.31798 0.049546 -4.13063 0.0773035 -0.279634 -0.187439
165 1 5.78304 17.093 1.67448 1.97311 1.99329 -0.167527 0.238183 -4.03002 -0.470323 0.45584 0.322119
167 1 8.56005 17.078 1.62099 1.63712 1.01306 -0.622391 4.61926 -4.0727 0.38274 -0.00616425 0.870274
175 1 5.70632 20.007 1.7449 -3.42076 -2.85137 2.01629 0.133008 -4.03893 0.0937603 0.0715785 0.151032
177 1 8.58858 20.043 1.95092 -1.05917 0.80188 -0.731301 0.962963 -3.99198 -0.265242 -0.435852 -0.927039
75 1 5.71713 19.9361 -1.25762 -4.53949 -0.9021 2.29786 0.128121 -4.05032 -0.29401 0.44283 -0.726818
65 1 5.67248 17.193 -1.21941 -1.31158 -3.63153 -0.620776 0.32983 -4.09074 0.321184 0.286343 0.0758946
161 1 14.1852 17.2046 1.84286 -8.06951 -0.86164 0.0732044 0.212203 -4.11272 -0.169476 0.180655 -0.268206
68 1 9.83757 18.5862 0.308017 1.01621 0.95189 3.77626 5.18481 -4.09546 0.468001 0.407448 -0.20877
70 1 12.7582 18.5098 0.267465 -2.75978 -0.241021 0.901339 0.155545 -3.98225 0.097921 0.537867 -0.641974
169 1 11.4357 17.1907 1.73433 -0.050047 0.778513 1.36961 0.109394 -4.04392 -0.247605 0.077207 -0.0240193
179 1 11.4548 19.9395 1.81994 0.478562 4.61523 -0.247094 0.246029 -4.07393 0.0312146 0.384592 -0.56421
69 1 11.3235 17.1806 -1.16111 2.51938 -0.439877 2.89062 0.211462 -4.05324 0.500687 -0.0853639 -0.727943
71 1 14.189 20.001 -1.15443 -3.02828 1.71166 0.793185 0.298116 -3.93483 -0.174685 -0.870048 -0.236599
61 1 14.2026 17.0274 -1.19482 -2.79754 0.110739 5.17862 0.290929 -4.00248 0.0250343 0.0359237 0.189267
72 1 1.54936 21.3951 0.184623 2.3338 -3.4761 -2.56089 0.173272 -4.11663 -0.33539 -0.34659 -0.0751588
74 1 4.24289 21.3195 0.314411 -0.775897 2.76848 -0.309503 0.359126 -4.16038 0.350999 0.192839 -0.0830447
82 1 1.5098 24.075 0.112066 -0.197856 1.54937 -4.05427 0.287961 -4.09679 0.0644081 0.487463 -0.061075
84 1 4.24694 24.1216 0.258662 1.75243 2.83472 -4.12876 0.390004 -4.00248 0.749139 0.615993 -0.36039
181 1 0.128659 22.763 1.68284 -3.03311 -1.67311 -0.629939 0.0465222 -4.07296 0.097784 -0.530029 -0.438168
183 1 2.89382 22.7594 1.64042 0.572942 -1.11899 -0.365379 0.154855 -4.10226 -0.221646 0.199598 0.791073
76 1 7.14056 21.2635 0.232465 -0.691281 0.193514 1.05787 0.365396 -3.96594 0.129876 1.04516 0.0270243
86 1 7.25436 24.2668 0.235089 -2.43118 3.29649 -1.15762 5.47798 -3.94466 -0.250109 -0.560756 -0.220671
185 1 5.72509 22.8979 1.64549 3.67767 -2.14848 -3.35625 0.466267 -4.06668 0.244389 -0.711266 -0.21344
187 1 8.47118 22.692 1.8166 -0.732136 -0.532565 -1.73565 0.575948 -4.05813 0.494983 0.277486 -0.720006
78 1 9.92402 21.3232 0.177049 -2.14879 -1.2859 1.20999 0.216621 -4.06955 0.103391 0.472166 0.718782
80 1 12.7264 21.3466 0.251892 -2.02506 0.894117 1.33119 0.0637002 -4.01623 0.96955 0.062275 -0.17563
88 1 9.99398 24.1702 0.275789 -1.34963 2.3224 -3.76156 0.19801 -4.07873 -0.614071 0.252649 0.149353
90 1 12.8226 24.1983 0.144019 -3.32555 -1.34099 0.789537 0.178071 -4.02398 -0.764701 -0.104247 0.421098
189 1 11.404 22.6532 1.66479 1.1462 2.87937 3.03823 0.284879 -3.97728 -0.111709 0.740834 -0.0340746
92 1 1.49183 27.0716 0.221802 -1.55268 0.823337 -0.21304 0.0685293 -4.03372 -0.199555 -0.149842 0.115391
93 1 2.95679 25.6072 -1.24749 -2.98218 -1.24306 2.03838 0.165507 -4.06236 -0.157664 0.265973 -0.201019
94 1 4.31233 27.0701 0.379439 -2.42482 -0.468398 -1.32983 0.654698 -3.99088 -0.472112 0.174763 -0.899427
193 1 2.87926 25.4829 1.65519 -1.0862 0.475835 1.41936 0.4068 -4.00032 0.0228608 0.930025 0.0935943
5 1 5.72241 28.2956 -1.18667 2.69086 -0.906142 0.0342517 0.564627 -4.04301 -0.286645 0.451047 -0.551635
107 1 8.62684 28.3911 1.76214 1.62718 -2.83475 -3.52836 0.292729 -4.10135 -0.361031 1.2176 -0.545905
96 1 7.19496 27.0059 0.224014 3.8854 -2.09663 -3.2721 0.0374714 -4.09122 0.0930989 0.0107142 0.56082
195 1 5.7699 25.6353 1.67018 -1.7019 -1.17403 1.74296 0.12777 -4.02485 -0.0444978 -0.144493 0.433837
197 1 8.65402 25.6862 1.72286 -0.592902 -0.620959 0.00800132 0.317264 -4.09107 -0.244399 -0.464178 0.418086
7 1 8.51249 28.4072 -1.16563 0.305773 -1.36188 3.04787 0.329518 -4.02935 -0.305023 -0.161939 -0.937443
191 1 14.1954 25.5315 1.67938 -0.0885336 -4.4938 -0.48509 0.207032 -3.97206 0.689204 -0.0529403 -0.750802
98 1 9.85719 27.0277 0.179872 2.60699 4.64685 0.62246 0.392122 -4.13432 0.637592 -0.108854 0.165523
100 1 12.8111 27.1397 0.234618 0.688756 2.41483 -3.36628 0.109949 -4.04221 0.187422 -0.258785 0.175191
199 1 11.3947 25.7747 1.72443 -1.77748 -0.753815 0.440887 0.579849 -3.99661 0.172648 -0.303508 -0.195819
99 1 11.3966 25.6653 -1.20491 -3.11862 -0.640777 0.494149 0.137642 -4.06647 -0.206115 -0.429408 0.190921
102 1 1.43258 1.58866 3.24859 7.38627 -3.29026 1.48818 0.293529 -4.08389 0.0548636 -0.070804 0.131458
104 1 4.40471 1.70471 3.15909 -2.62904 -0.431866 -2.50035 0.22691 -4.05748 -0.69888 -0.0871802 -0.583974
202 1 1.64591 1.56967 6.10043 2.02744 3.5456 -1.59179 4.49074 -4.06067 -0.887312 1.16093 0.399097
203 1 2.94499 0.259696 4.67599 -1.3304 -3.48688 0.0854903 0.127608 -4.09651 0.0602278 0.163575 -0.486343
204 1 4.18458 1.68524 6.18096 -0.935437 1.48785 2.63114 4.40093 -4.05175 1.25616 -0.608447 -0.307661
213 1 2.88677 3.08084 4.64202 -2.28947 -0.845795 -1.07431 0.345788 -4.09213 0.332671 0.0848584 -0.077454
106 1 7.15632 1.63052 3.14414 0.736671 -1.16949 0.0239501 0.234095 -4.12239 0.66176 0.259842 0.51601
205 1 5.64874 0.299036 4.54266 2.33469 0.995414 0.291621 0.557455 -3.98081 0.611641 -0.367101 1.00065
206 1 7.2548 1.68985 6.14276 -1.46106 -1.55409 1.7364 0.351952 -4.01746 -0.616686 -0.932895 0.0761035
207 1 8.58474 0.236208 4.75118 1.31666 3.04051 1.49325 0.145914 -4.03104 0.352091 -0.122431 -0.924545
215 1 5.78167 2.95842 4.80312 -1.49422 -2.50707 3.51511 0.511101 -4.03611 -0.541225 0.342124 -0.380787
217 1 8.60442 3.0921 4.69895 -1.80041 2.92479 -5.24384 0.121195 -4.07465 -0.0339401 -0.425693 0.00620539
201 1 14.2143 0.277593 4.75479 -0.76465 1.66164 -3.30675 0.313709 -4.08119 0.0672748 -0.141883 -0.307207
211 1 14.1953 3.09372 4.80818 0.131749 -3.47244 0.658656 0.259921 -4.04361 0.357256 -0.759075 -0.360037
108 1 9.98023 1.81548 3.26998 1.78008 -0.0382443 0.481447 5.42997 -3.98265 0.149837 -1.40598 -0.0409593
110 1 12.7567 1.63776 3.1808 0.143622 0.261967 0.471904 0.158524 -3.9671 0.337809 -0.0878771 0.617875
208 1 9.93587 1.5992 6.23084 -2.11946 3.54369 -4.60115 0.124289 -4.15596 0.258213 0.519356 -0.413296
210 1 12.7168 1.62492 6.25886 1.93469 -2.84729 3.21644 0.353412 -4.0241 0.066907 0.182863 -0.224214
219 1 11.4042 3.08595 4.7235 2.96876 -3.6 -0.306264 0.0653711 -4.01533 -0.10681 -0.0123134 0.294633
112 1 1.47335 4.44722 3.33132 -2.08488 5.53109 1.88305 0.232564 -4.01079 0.0726412 0.815414 0.0126045
114 1 4.45714 4.53943 3.3436 0.408107 -1.46821 1.68028 5.01352 -4.08266 -0.0865333 -0.716629 -0.0963224
122 1 1.5387 7.19477 3.29886 -2.178 2.10286 -1.52883 0.264999 -3.96829 -0.518457 0.341339 -0.163173
124 1 4.30599 7.3213 3.27645 -1.70609 -0.894295 0.386355 0.157338 -3.98237 0.0408373 0.469061 0.0566125
212 1 1.5107 4.56417 6.23694 1.71349 1.1107 -0.37813 0.379342 -4.08242 -0.0492958 -0.453137 0.0938697
214 1 4.35594 4.34938 6.25484 -3.60792 0.888428 1.10906 4.78278 -4.06388 0.316461 0.738864 -0.534808
222 1 1.54559 7.23945 6.21574 2.60978 -1.28947 -2.65909 0.156229 -4.09398 -0.625493 -0.220966 -0.173667
223 1 3.00176 5.86832 4.7625 -2.9209 -3.41332 -1.19244 0.119697 -4.08812 -0.0276497 0.190846 0.362022
224 1 4.45542 7.31972 6.2512 2.28078 -2.16034 3.83898 0.294516 -4.03311 -0.570828 0.34195 -0.325288
116 1 7.08446 4.43511 3.27687 -0.717838 -0.661302 1.69127 5.11052 -4.08154 0.709883 0.209074 0.0672239
126 1 7.33953 7.39572 3.2561 1.37971 -3.46356 0.697126 0.488775 -3.9723 -0.317838 -0.734871 -0.301337
216 1 7.15048 4.45322 6.10183 0.663868 1.20315 1.59813 0.32985 -4.11833 0.129812 0.691699 0.0146123
225 1 5.7941 6.05956 4.67848 0.299468 -1.75276 -1.18853 0.618065 -4.03131 -0.0204956 -0.197934 0.307722
226 1 7.22143 7.27669 6.21849 -1.92098 2.73055 -2.00716 0.11033 -4.11859 -0.0596484 0.243723 -0.0277036
227 1 8.61587 5.8789 4.68497 -0.532809 -0.371899 0.126652 0.130832 -4.03362 -0.34647 -0.131987 0.164706
221 1 14.1524 5.86373 4.77638 0.796103 -1.93786 -0.0692733 0.12593 -4.06162 0.0828535 0.434531 -0.328801
118 1 10.0291 4.4796 3.24034 -2.00022 0.251406 -1.34662 0.100708 -4.11298 -0.00521607 0.388236 -0.201975
120 1 12.7727 4.51546 3.17733 -2.93314 -0.0391201 0.674702 0.110741 -4.08719 0.0915302 0.0208419 0.304302
128 1 10.0124 7.32217 3.19233 -2.7644 2.28321 3.1472 0.12593 -4.09488 -0.607086 -0.214105 0.06354
130 1 12.7448 7.26336 3.19816 -1.8326 -3.86476 -3.53257 0.159758 -4.09716 0.489869 0.0491645 0.0223434
218 1 9.92391 4.44006 6.21275 2.54663 2.02038 1.45237 0.0879588 -4.10406 0.428304 -0.216179 -0.0755247
220 1 12.7806 4.44772 6.20466 -0.879614 -1.25736 1.20844 0.0629455 -3.98182 0.198657 -0.246944 0.148474
228 1 9.92162 7.27115 6.29639 0.0778168 -0.255412 1.79302 0.255917 -4.0796 0.0927264 0.040441 -0.314471
229 1 11.2652 5.91426 4.75645 0.58398 1.74186 -1.1864 0.29918 -4.08095 0.749891 0.223475 -0.0086522
230 1 12.8446 7.35538 6.13086 2.31232 0.678649 1.21522 0.273795 -4.04725 -0.62612 -0.694928 0.380399
132 1 1.49806 10.2454 3.15897 0.926583 1.77752 2.20689 0.200895 -4.02659 -0.0899005 -0.679617 0.494875
134 1 4.33421 10.2257 3.29415 -1.95039 -2.01599 -1.69927 0.275382 -4.01535 -0.0886375 -0.919362 0.38658
232 1 1.56015 10.1641 6.23198 2.12226 0.0705619 -0.681687 0.2087 -4.09378 -0.383575 0.158535 -0.57436
233 1 2.86938 8.7146 4.77893 -0.683116 0.194601 5.31636 0.14459 -4.01539 0.201122 0.0604564 -0.79929
234 1 4.30212 10.2221 6.21071 -0.621179 0.157015 -0.123602 5.27007 -4.06585 0.901002 -0.561827 0.330845
241 1 0.149986 11.5192 4.67988 -2.41095 0.904273 -0.0212207 0.091757 -4.06501 -0.0287347 0.0197346 0.110394
243 1 2.87755 11.525 4.62783 -0.234391 0.744033 0.670144 0.241234 -4.03603 -0.0436972 -0.140438 0.329431
136 1 7.34978 10.1327 3.27182 0.629619 0.98562 1.20116 4.86477 -4.08809 -0.54915 0.130797 -0.312464
235 1 5.87066 8.81598 4.65147 0.465343 -1.43871 1.4062 0.376081 -4.06481 -0.481701 -0.437869 -0.00169658
236 1 7.13391 10.1574 6.23795 2.36863 -0.429749 -0.449581 0.258947 -4.1149 -0.364813 -0.00632557 0.428171
237 1 8.63235 8.75913 4.87157 2.56455 0.935182 0.542097 0.359919 -4.12308 -0.124289 -0.142985 -0.263825
245 1 5.87987 11.5851 4.71527 0.240801 -0.541356 -0.243051 0.423381 -4.05267 -0.384406 0.0500989 -0.399744
247 1 8.6244 11.498 4.82313 0.432483 -3.51449 2.45946 0.19395 -4.12101 -0.307473 0.857685 -0.115849
231 1 14.2058 8.74973 4.67887 -0.187028 1.52542 1.17023 0.0859224 -4.10825 0.842688 -0.132983 -0.212401
138 1 9.92992 10.142 3.20563 -1.64946 -2.47072 4.24093 5.10456 -4.13826 0.753071 -0.1052 0.297062
140 1 12.8378 10.2224 3.21371 -3.06779 0.590986 0.953237 0.191507 -4.1162 -0.376698 -0.0831446 0.0568559
238 1 10.0462 10.0877 6.23727 4.00462 1.03455 -0.403308 0.140313 -4.02167 0.140767 0.341499 0.479941
239 1 11.364 8.67474 4.68615 1.07823 -1.10089 5.00007 0.0978574 -4.09406 0.321638 0.0223444 0.00725981
240 1 12.788 10.0949 6.06166 0.473313 1.12475 -2.36237 0.370891 -3.98341 0.297183 0.599779 0.805247
249 1 11.3994 11.5636 4.81247 0.00818624 4.09037 -1.73351 0.244652 -4.07563 -0.292533 -0.201253 0.00138595
142 1 1.52181 13.0509 3.31539 -1.28477 -4.17543 2.9049 0.347376 -4.10862 -0.165928 0.0850678 -0.38577
144 1 4.29805 12.8216 3.14871 1.81958 -2.20134 0.0142737 4.77054 -4.04608 0.803802 0.606161 0.251449
152 1 1.51339 15.8576 3.29141 -0.669006 2.84052 -0.820189 5.19306 -4.14985 0.543124 -0.70304 -0.337323
154 1 4.25725 15.7179 3.2059 2.46855 -1.35996 -1.82568 0.305425 -4.0471 0.517298 0.613283 -0.540006
242 1 1.53992 12.9165 6.18006 0.280113 3.4737 -1.1283 0.118581 -4.12616 0.424671 0.0570901 0.144693
244 1 4.24982 12.7782 6.20676 2.14938 -0.0921022 -0.749942 5.18192 -4.071 0.100232 0.549173 -0.435642
251 1 0.128475 14.4623 4.77871 2.68999 -0.1114 0.508103 0.223168 -4.04768 -0.27513 0.0408337 -0.241074
252 1 1.63436 15.7834 6.09225 -3.12021 0.366244 0.726554 0.462882 -4.00388 0.285149 -0.296197 0.427032
253 1 3.02926 14.3678 4.75341 0.643288 -2.70259 -2.00417 0.353419 -4.02007 -0.379415 -0.101715 -0.466353
254 1 4.32401 15.7314 6.30068 -3.29084 -1.84392 -1.68306 0.274456 -4.02295 -0.0411101 -0.033365 -0.628123
146 1 7.13468 12.9886 3.22031 1.04428 0.1527 -2.62964 0.131782 -3.92231 0.669014 -0.528001 -0.0548719
156 1 7.1141 15.8395 3.2473 -5.45427 -4.00032 2.42238 0.290315 -4.04328 0.314561 -0.163331 0.167837
246 1 7.17912 12.9922 6.25151 0.991656 -1.68864 -0.448699 0.136923 -4.016 0.608223 -0.209825 0.153015
255 1 5.79332 14.3612 4.67032 0.949383 2.2935 -3.25327 0.177499 -4.08282 -0.748519 -0.0663527 0.408639
256 1 7.19239 15.8423 6.11394 -0.861153 0.781607 -0.146585 0.373843 -4.05567 0.299373 -0.514245 0.0222847
257 1 8.60857 14.4287 4.76992 -2.00567 3.54744 2.76289 0.0730008 -4.05557 -0.49116 -0.649381 -0.356658
148 1 10.0789 12.8625 3.31788 2.53119 -0.204599 1.59625 0.297413 -4.02009 -0.697744 0.521166 -0.0741561
150 1 12.8144 12.9078 3.28393 0.842405 -1.04171 -0.584461 0.156734 -4.11954 0.312107 0.628155 -0.245875
158 1 10.0599 15.8093 3.30081 1.95172 -4.28031 -2.67566 0.25329 -4.02725 0.241535 -0.0831378 0.228749
160 1 12.7974 15.8078 3.20113 2.05154 2.79304 -0.0709358 0.189416 -4.06346 -0.147233 -0.430649 0.724006
248 1 10.001 13.0598 6.25649 1.15591 3.93167 -3.97146 0.32698 -4.03005 0.46485 0.197245 0.0382065
250 1 12.9049 12.9601 6.15927 1.45982 -1.9964 -1.75047 0.258484 -4.08208 0.166321 -0.285146 0.098206
258 1 10.0849 15.781 6.21838 3.15439 -2.57917 -3.22034 5.30505 -4.11072 -0.374639 -0.543167 -0.0881677
259 1 11.5154 14.2983 4.71372 2.36546 0.76793 -0.871017 0.26673 -4.07654 -0.646932 0.541698 0.367555
260 1 12.7221 15.7462 6.24614 1.07372 0.97037 -2.70378 0.528663 -4.00096 0.524721 -0.0279357 0.33638
162 1 1.61205 18.4318 3.23309 0.103087 0.473685 0.329909 4.90773 -4.06103 0.0601301 0.556826 0.440532
164 1 4.41893 18.6151 3.11943 -0.211573 3.22505 -5.20284 0.341425 -4.04511 -0.720532 -0.63997 0.451826
262 1 1.64124 18.6991 6.19546 -1.57751 0.894061 -4.43727 0.343414 -4.09165 -0.608517 -0.620202 0.108324
263 1 3.02324 17.1738 4.70043 -2.37006 -0.133771 0.32695 0.26086 -4.08519 0.0518309 0.489455 0.340408
264 1 4.25569 18.5351 6.33938 2.99979 1.41468 -0.253245 0.480338 -4.0504 0.90863 0.353087 -0.234081
271 1 0.239882 19.931 4.60909 -2.9132 -1.24747 -1.34561 0.590359 -4.05725 -0.43048 0.0263387 0.117567
273 1 3.06119 20.0027 4.71644 0.40391 -0.0741893 3.19324 0.35727 -4.0772 -0.284481 0.224054 -0.134439
166 1 7.16241 18.5363 3.21486 0.698547 0.150344 -2.49931 0.173067 -4.1292 -0.128795 -0.116897 0.0846493
265 1 5.71847 17.1429 4.8352 -1.6126 -0.82668 -3.54668 0.424696 -4.07787 -0.451113 0.484471 -0.184437
266 1 7.25348 18.553 6.11518 1.95445 3.37989 -0.145865 0.541695 -3.99832 -0.85963 0.124437 0.295078
267 1 8.63962 17.1234 4.64207 1.62128 1.24999 -1.44411 0.260928 -4.03164 0.00798245 0.370473 0.564298
275 1 5.66392 19.9514 4.72269 0.0670137 -1.38317 -3.87798 0.299782 -4.0702 0.254508 0.16651 0.316877
277 1 8.52362 20.0544 4.71205 0.898333 -0.0775842 -0.479706 0.253113 -4.10282 0.670326 0.0332588 0.425522
261 1 14.1769 17.1487 4.79246 3.22524 -0.724689 1.23685 0.353013 -4.10287 -0.0738161 0.0316601 0.148557
168 1 9.9888 18.5753 3.25737 -3.61858 0.233632 -1.83299 0.201996 -4.03732 -0.257667 -0.433199 0.146482
170 1 12.8038 18.6463 3.36253 0.900172 4.64776 -2.52583 0.324741 -4.07799 0.244682 -0.696492 -0.445184
268 1 9.90461 18.5053 6.31409 4.57801 -0.241298 0.328247 4.49839 -4.02322 0.480117 0.162472 -0.650647
269 1 11.4148 17.1891 4.89754 1.22914 3.37173 -1.05524 0.384862 -4.04217 0.557481 0.660965 -0.891083
270 1 12.909 18.7314 6.20068 -1.75346 -1.91228 -0.862528 0.52992 -4.04577 -0.597629 -0.458719 0.781709
279 1 11.3598 20.0486 4.69035 2.0114 -4.45816 0.994583 0.26109 -4.02124 -0.120854 -0.394398 0.252127
172 1 1.47279 21.4257 3.26045 2.33301 -0.225112 2.95214 0.271591 -4.07284 0.907558 -0.0528629 0.119343
174 1 4.32705 21.4567 3.10847 -1.27528 -0.710527 -1.51037 0.269175 -4.07707 -0.217904 0.0485946 0.286637
182 1 1.5749 24.1646 3.21325 -0.784188 -3.79054 -2.16947 0.0646892 -4.11012 -0.871545 0.49882 0.459702
184 1 4.3073 24.238 3.17093 -0.587332 0.565944 -1.32797 0.143674 -4.06105 0.211646 -0.399833 -0.0604302
272 1 1.50093 21.4332 6.12096 -1.3891 0.701157 2.48604 0.365362 -4.11399 0.0194869 -0.457023 0.862429
274 1 4.4257 21.4489 6.28124 2.59471 -0.91757 -0.537123 0.261406 -4.01235 0.122705 0.020791 -0.337799
281 1 0.183488 22.7914 4.7757 -2.74019 0.616667 0.622568 0.15251 -3.99589 -0.369498 0.640125 -0.5641
282 1 1.52472 24.1909 6.2891 -1.23117 0.365724 -0.651941 0.160285 -4.07663 0.888276 0.199882 -0.698526
283 1 2.92311 22.8102 4.79332 1.18139 2.06881 4.32688 0.172494 -4.01704 0.510082 0.137586 0.055295
284 1 4.42474 24.2671 6.25696 -2.88227 1.45219 3.65201 0.163883 -4.00872 0.0149419 -0.591756 -0.0725376
176 1 7.06694 21.3141 3.28097 -3.95137 -1.5893 -1.01736 0.39017 -4.05357 -0.0380651 -0.121572 -0.969137
186 1 7.17879 24.1447 3.12175 2.78581 2.06017 1.88695 0.189346 -3.98053 -0.0375174 0.85894 0.266178
276 1 7.10716 21.4372 6.2704 2.60993 -1.18025 -2.38511 0.240618 -4.03893 -0.0288013 -0.460159 -0.24314
285 1 5.85589 22.7635 4.58896 1.31531 1.02106 -0.50399 0.535743 -4.00485 -0.879816 0.958119 1.17056
286 1 7.16944 24.2408 6.25098 1.08031 -1.08147 0.839848 0.277794 -4.02999 -0.0749656 -0.301553 -0.296289
287 1 8.6565 22.7436 4.6344 2.42 3.87829 -0.705154 4.75338 -4.18627 -0.581273 0.502961 0.682959
178 1 9.99102 21.4199 3.17561 -1.13098 -1.50552 3.15931 0.240356 -4.07261 0.850248 0.0818521 0.128163
180 1 12.8404 21.4228 3.30655 -0.471497 0.0061306 0.269058 0.290488 -4.18115 0.0328881 -0.0869782 0.187233
188 1 10.0407 24.0693 3.07097 -1.30348 -2.27273 0.479064 4.65749 -3.96335 -0.281675 0.776253 0.1571
190 1 12.925 24.1389 3.18576 -1.55903 -2.12372 1.13416 0.39998 -3.98357 -0.676174 0.0340494 0.291319
278 1 9.94955 21.4304 6.32085 1.38589 -0.978514 1.96516 0.321702 -3.9882 0.22172 -0.75799 -0.596839
280 1 12.8739 21.3633 6.13485 1.61778 1.13426 1.57654 0.290451 -4.1279 0.0756243 -0.0888843 0.0432244
288 1 10.0194 24.1956 6.30164 2.68269 2.22443 1.78439 0.382292 -4.00753 -0.576067 -0.290122 -0.235471
289 1 11.3072 22.8471 4.71735 -3.96248 4.07387 -0.259648 0.488078 -4.09108 0.00780274 -0.360309 0.586003
290 1 12.8777 24.1232 6.19014 1.06046 -1.98762 3.24564 0.236354 -4.08849 -0.301135 0.408489 0.219599
192 1 1.54582 26.9795 3.24565 0.832332 -0.820942 0.130328 0.145759 -4.13588 -0.11092 0.0149911 -0.00713325
194 1 4.33343 27.1078 3.18909 -1.61671 -3.20912 1.28134 0.249848 -4.05572 -0.41011 -0.269887 -0.568039
291 1 0.123486 25.6243 4.83325 -1.91934 -0.395923 -0.219087 0.374562 -3.99786 -0.233415 -0.119915 -0.520633
292 1 1.58125 27.1181 6.1067 0.521729 -0.104332 -0.21211 0.26354 -4.1207 -0.269517 -0.563676 -0.0879082
293 1 3.0799 25.6086 4.68977 2.80973 1.17343 -0.298043 0.37988 -3.99329 -0.577165 0.134876 0.614867
294 1 4.2495 27.1204 6.18279 -1.17778 2.9951 1.58236 0.251102 -4.04094 0.442867 0.0744236 -0.154692
196 1 7.3038 27.0489 3.32883 3.37805 -2.98627 4.17109 4.76345 -4.00655 -0.949279 0.0414956 -0.977696
295 1 5.73558 25.636 4.66919 2.43808 0.681994 -1.51506 0.1558 -4.08267 0.294694 -0.190017 0.371991
296 1 7.17419 27.0665 6.09667 0.309675 6.50899 -1.89168 0.243425 -3.97046 0.137845 0.776461 0.118773
297 1 8.56397 25.5256 4.71503 -0.134748 1.31643 -3.31811 0.344708 -4.08914 0.861836 0.435885 -0.140443
209 1 11.3537 28.3011 4.78112 -0.393176 -1.47754 0.78913 5.67913 -3.96131 0.432654 0.662266 -1.12088
198 1 9.95313 27.0869 3.12796 0.689763 -0.698924 -1.31982 0.299499 -3.90937 0.381001 -0.218614 1.38819
200 1 13.0099 27.0067 3.18111 5.30296 -0.270392 0.651806 5.31634 -3.989 -0.661547 0.435731 0.015859
298 1 9.9521 27.1594 6.25959 1.28797 -2.74568 -4.13594 0.325578 -4.05347 -0.707707 -0.856285 0.325861
299 1 11.357 25.6421 4.75701 0.613569 6.18239 1.53807 5.97499 -3.9943 0.455582 -0.263523 -0.607643
300 1 12.9347 27.0657 6.25194 -0.577292 -1.28953 -3.83829 0.297238 -4.06374 -0.917801 0.0694565 0.476241
301 1 0.190771 0.330155 7.57614 0.5675 -0.168496 -2.46061 4.763 -4.11286 -0.129734 -0.455694 0.514197
302 1 1.52998 1.64637 9.32683 -1.42736 -3.15682 0.972455 0.285983 -4.06688 -0.196162 -0.233144 -0.0316728
303 1 2.87995 0.257353 7.72802 0.341516 -0.0404191 -2.60214 0.182171 -4.09602 0.017589 -0.214681 0.431031
304 1 4.29008 1.6221 9.1702 -4.04083 -0.468429 4.02966 0.151706 -4.02291 -0.0437763 0.516191 0.343938
311 1 0.149724 2.85167 7.71983 -1.74976 0.28104 0.763369 5.04606 -4.01001 -0.00476601 1.66199 -0.455242
313 1 2.89377 2.99568 7.60796 0.148637 -0.416692 -0.495992 0.340366 -3.9902 -0.19945 0.648928 1.03849
403 1 2.9679 0.297361 10.7401 0.394335 0.406084 2.23505 0.174794 -4.07329 0.17347 -0.594572 -0.509549
411 1 0.156785 3.04543 10.6954 0.660313 -0.658618 -1.38298 0.137943 -4.09336 -0.765279 0.293281 -0.0951123
413 1 2.87494 3.0559 10.8041 -3.05234 -3.9865 -0.430171 0.330609 -4.11401 0.648954 0.41173 -0.323745
305 1 5.63949 0.272746 7.72376 -2.6762 0.601797 -1.53878 0.272069 -3.97722 0.822041 0.0845827 -0.415363
306 1 7.16827 1.7968 9.19918 -0.497955 1.38302 -0.554626 0.424352 -3.94619 -0.375461 -0.930111 0.339805
307 1 8.54451 0.339894 7.76756 2.06573 -1.47317 -0.377265 0.316429 -4.08224 -0.00712048 -0.981641 0.457266
315 1 5.88369 2.98404 7.64123 0.746495 3.22544 0.384377 0.621454 -4.04438 -0.965013 0.245598 0.347449