ITEM: TIMESTEP
12250
ITEM: NUMBER OF ATOMS
2000
ITEM: BOX BOUNDS pp pp pp
1.0838953229856951e-01 1.4221610467701321e+01
2.1677906459713903e-01 2.8443220935402643e+01
8.7784216276910632e-02 5.7232215783722651e+01
ITEM: ATOMS id type x y z vx vy vz c_csym c_peratom fx fy fz
2 1 1.62332 1.66863 1.5237 -0.282889 -3.25185 -0.636516 0.277079 -4.11068 -0.615644 0.181168 -0.592694
4 1 4.35789 1.61575 1.45433 0.990702 -5.33602 3.45801 0.214437 -4.15042 0.243994 0.327794 0.803501
11 1 0.115605 3.14255 0.133941 0.617832 -0.194419 3.50607 0.198372 -4.0753 -0.177574 -0.0271421 -0.0884354
101 1 0.126621 0.284403 2.91894 -1.57173 1.46596 2.1275 0.151303 -4.10874 -0.379434 -0.112821 -0.346967
103 1 2.85007 0.270771 2.97624 0.287695 0.367304 -1.8153 0.235734 -4.01052 0.202774 -0.0457172 0.0439886
111 1 0.168447 3.08626 2.94438 -2.2925 0.592843 0.179022 0.12964 -4.16371 -0.27933 0.273856 -0.159887
113 1 2.87763 3.13123 2.99772 -1.71434 2.42111 -1.1208 0.323929 -4.08714 0.0349564 0.102497 0.00269914
13 1 2.94284 3.10367 0.10607 -0.0706192 -1.95523 0.774801 0.0710796 -4.0474 -0.107245 -0.0702514 0.281383
6 1 7.17995 1.58532 1.5172 -1.53139 -1.81767 -2.43971 0.223701 -4.11238 0.0826963 0.729419 -0.149334
17 1 8.63608 3.25517 0.154313 -1.24355 -0.0988133 -0.860341 0.805926 -4.06075 -0.494861 -1.18258 -0.499118
105 1 5.90739 0.22905 2.94577 0.812795 -1.48127 -4.16198 0.293256 -4.08326 -0.988876 -0.59814 0.272501
115 1 5.79048 3.13764 2.9316 -0.932742 0.818202 0.0439582 0.178702 -4.0484 -0.280866 -0.868283 0.207681
117 1 8.60233 3.08029 3.00885 0.475293 0.415756 -1.302 0.154782 -4.0743 0.0350129 0.159571 -0.807115
15 1 5.86915 3.09703 0.142686 -1.1078 -3.23994 -0.243916 0.285868 -4.03005 -0.285275 -0.0191811 -0.507717
8 1 9.98472 1.71462 1.40638 1.02028 2.64764 -1.65962 0.362091 -4.06004 -0.825164 0.0315108 1.46368
9 1 11.3244 0.287262 0.184249 -0.628437 1.37052 0.162777 0.374317 -4.05188 1.18031 -0.377619 -0.209059
10 1 12.8557 1.68831 1.45484 -0.261261 2.58464 0.684826 0.127902 -4.04388 -0.523024 0.0964766 0.267778
109 1 11.3921 0.306018 2.91703 4.17545 -4.26001 3.01885 0.165337 -4.1029 -0.278322 -0.269948 -0.100512
119 1 11.4562 3.11085 2.86505 -0.877516 0.612354 1.13148 0.147176 -4.11834 -0.387317 -0.0454254 0.186929
12 1 1.52356 4.6359 1.42548 1.18436 1.40208 1.05812 0.548767 -4.06397 0.200843 -0.679028 0.168647
14 1 4.34915 4.42365 1.61302 -0.761965 1.11821 -1.53086 0.266903 -4.10497 -0.1025 0.116995 -0.596288
22 1 1.54026 7.32431 1.45169 0.529166 1.27637 -0.648244 0.230728 -4.05541 0.0377219 0.0547534 0.955598
23 1 3.01689 5.92797 0.114235 4.21453 0.286138 -0.65637 0.220353 -4.05815 -0.178685 0.155298 -0.2652
24 1 4.35552 7.36387 1.51888 0.718611 1.41969 0.425215 0.103763 -4.03526 -0.474598 -0.082602 0.151348
121 1 0.132435 5.82793 2.93771 -2.35864 3.10392 -0.471262 0.180847 -4.04487 0.266993 0.478791 0.165239
123 1 3.01618 5.86763 3.02889 1.00139 1.8653 -1.24788 0.249767 -4.14561 -0.298517 -0.164047 -0.33748
16 1 7.14135 4.5226 1.59273 0.603539 0.154603 0.133915 0.147691 -4.0658 0.0638742 -0.559748 -0.265827
25 1 5.70759 5.92495 0.200685 -0.827089 1.1553 2.35682 0.306103 -4.14756 -0.396239 -0.588141 -1.13981
26 1 7.1412 7.16975 1.47145 -0.0337704 2.62343 0.778117 0.517716 -3.9346 0.237348 1.35269 0.55435
125 1 5.74127 5.95799 2.97918 -0.136011 -2.75282 -0.154075 0.137424 -4.20273 0.443633 0.356668 -0.0683624
127 1 8.57446 5.88387 2.84955 -1.51658 -3.67076 0.00771245 0.342525 -4.10448 0.351585 0.072053 0.81709
18 1 10.0587 4.47472 1.52029 2.01504 1.15568 0.108705 0.206652 -4.05724 0.114266 0.713547 0.114765
20 1 12.7939 4.54238 1.48808 -0.022531 3.00342 -1.17168 0.0573536 -4.12926 -0.297435 -0.0448449 0.269035
28 1 10.1169 7.35391 1.6057 1.08986 -1.21663 1.80841 0.393706 -4.02866 -0.887606 -0.616346 -0.453772
29 1 11.4127 5.98723 0.104876 1.3822 1.47477 -0.555896 0.0532171 -4.13398 -0.317776 -0.657352 -0.50987
30 1 12.8531 7.28188 1.5785 0.362699 -0.519128 0.486825 0.133496 -4.15386 0.0242188 0.595792 -0.314882
129 1 11.3642 5.90889 2.98603 -0.995542 1.01394 2.2528 0.106256 -4.11153 0.432585 -0.204293 0.0756282
32 1 1.48279 10.1923 1.4541 2.66336 -1.18469 0.933482 0.210738 -4.12689 0.413022 -0.747766 0.374369
34 1 4.32744 10.195 1.45498 -3.42019 -1.92301 1.41173 0.180247 -4.08412 0.0595072 -0.801183 0.129503
43 1 2.92107 11.628 0.109291 2.17426 0.782241 3.50485 0.110642 -4.09386 0.0223231 -0.613987 -0.597377
133 1 2.87707 8.77788 2.96971 -1.44944 0.975575 0.710255 0.0888267 -4.09261 0.363107 -0.170482 0.234489
141 1 0.146359 11.6297 2.86003 -2.20193 -7.04944 -1.51669 0.290642 -4.1182 0.187613 -0.156987 0.624724
143 1 2.92416 11.521 2.94707 -0.572232 1.1909 1.77002 0.157678 -4.12147 -0.634488 0.396111 -0.718367
36 1 7.17897 10.1662 1.56424 0.10168 3.47717 0.174941 0.159289 -3.99852 0.217128 0.0659924 -0.296882
47 1 8.63625 11.4798 0.186858 -1.46078 2.66256 0.234251 0.270532 -4.07836 -0.333998 -0.100204 -0.716458
135 1 5.71447 8.72482 3.0429 -0.880733 0.590278 -0.109653 0.275225 -4.10644 0.426698 -0.0632288 -0.80099
137 1 8.61908 8.74613 2.8849 -4.19951 1.4167 -2.48788 0.342931 -4.11706 -0.297476 -0.138145 0.306964
145 1 5.78797 11.4174 2.94956 0.913579 -3.10787 0.676852 0.313269 -4.07495 -0.149958 0.703026 0.3004
147 1 8.63173 11.5707 3.04823 -2.52053 -2.66134 -2.016 0.178623 -4.09413 -0.145245 0.761921 -1.09099
37 1 8.64539 8.6808 0.215524 -0.410704 1.96136 0.795798 0.34541 -4.14677 -0.663503 0.501633 -0.373936
41 1 14.1834 11.5242 0.183087 -1.35835 -5.95404 3.83557 0.230202 -4.0677 -0.129726 0.312935 -0.356982
131 1 14.189 8.78043 3.06297 -1.59748 2.05417 3.03081 0.369448 -4.03188 0.959568 -0.568504 -0.245378
38 1 10.1092 10.2499 1.63001 0.647054 3.02786 -2.05404 0.488828 -4.06997 -1.06369 -0.932621 0.0497481
39 1 11.3428 8.78317 0.138155 2.80774 -0.622395 -1.00191 0.222775 -4.10304 0.711823 -0.119365 -0.141659
40 1 12.8549 10.1114 1.64683 -1.75728 -0.634733 -0.267602 0.227596 -4.1099 0.000850759 -0.329648 -0.786284
139 1 11.4119 8.69776 3.0306 -0.425376 2.4171 -0.0430739 0.105194 -4.09886 0.335751 0.435347 -0.549253
149 1 11.4267 11.5446 3.03145 -0.904464 -0.906018 0.248794 0.169668 -4.07575 0.24412 0.309617 -0.13914
49 1 11.351 11.4979 0.165686 -3.94296 -1.72452 -3.57845 0.141167 -4.05176 0.509597 0.205258 -0.435688
42 1 1.60077 12.9976 1.43819 -0.841826 -0.173751 0.753914 0.409609 -4.08784 -0.708514 0.467745 0.606512
44 1 4.30049 12.9516 1.42355 -1.17519 0.372824 -0.13007 0.103073 -4.16206 0.763196 0.0553851 0.613205
52 1 1.58776 15.7356 1.65954 -0.585983 1.26946 1.71295 0.633989 -4.02291 -0.701271 -0.160093 -1.03249
54 1 4.38463 15.6552 1.51566 0.269637 0.959657 1.9614 0.260033 -4.08879 -0.534542 0.3856 -0.261464
153 1 2.9946 14.2978 2.95973 -3.03426 -0.361765 3.65674 0.162843 -4.0131 -0.596157 0.0365679 0.111684
46 1 7.13899 12.8477 1.49194 -0.042375 -0.703018 -2.37022 0.218777 -4.04939 0.0745022 0.459737 0.182791
56 1 7.08452 15.7726 1.43939 0.19616 0.505449 -1.21975 0.235498 -4.08808 -0.0513018 -0.328345 0.186996
155 1 5.76502 14.3443 2.90485 -0.699273 2.50818 -2.71856 0.10196 -4.11286 0.1336 -0.309133 0.328629
157 1 8.53251 14.4644 2.98593 1.77519 1.9958 -4.01974 4.87703 -4.11866 0.0790594 -0.332798 -0.17056
57 1 8.49816 14.3386 0.223373 5.27468 2.46447 0.151665 0.457344 -4.01259 0.542972 -0.119373 -1.17187
51 1 14.0057 14.3518 0.0881852 5.08997 3.62125 -2.07853 4.57517 -4.01969 1.74804 -0.562224 -0.25629
151 1 14.2009 14.4155 2.96783 -4.71089 2.01634 -0.85659 0.116604 -4.03155 -0.122953 -0.274732 0.0611428
48 1 9.93985 13.0563 1.54081 2.86016 2.34417 0.701272 0.264863 -4.09908 0.43361 -0.717293 0.0925223
50 1 12.7181 12.9904 1.53821 0.559624 -1.36974 -0.820506 0.1704 -4.0995 -0.100661 -0.375681 -0.144796
58 1 9.99316 15.7186 1.52342 -3.3381 -1.51398 5.38263 0.162308 -4.09067 0.000865883 0.57086 0.00589613
60 1 12.7967 15.7437 1.52885 1.53771 1.90327 -4.70531 0.109212 -4.0804 -0.440188 0.0725689 0.60116
159 1 11.3491 14.3264 3.0161 -0.265735 -1.65506 -3.98071 0.148669 -4.08881 0.57127 0.0553314 -0.330608
62 1 1.43944 18.5161 1.56309 0.272627 0.831543 -0.200207 0.114511 -4.05196 0.218004 0.0698254 -0.211787
64 1 4.38586 18.6552 1.56711 1.24428 1.0664 2.86252 0.399323 -4.03593 -0.54351 -0.983546 -0.0617155
163 1 2.94245 17.1558 2.85874 0.341627 2.40032 0.506019 0.367534 -4.04372 0.755578 0.115126 0.279091
171 1 0.141802 19.9783 3.05193 -0.0590841 -1.37942 4.27312 0.161383 -4.13559 -0.151457 -0.27634 -0.493676
173 1 2.89555 19.9823 2.93858 0.785649 -1.23368 2.3689 0.141515 -4.13127 -0.862138 -0.540639 0.202355
66 1 7.24355 18.6165 1.56636 2.75597 -4.35103 0.905848 0.354037 -4.18323 -0.618476 0.145703 0.166886
67 1 8.57677 17.1461 0.110986 -4.30079 -3.56988 1.31798 0.0495058 -4.15503 -0.230515 0.032499 -0.279902
165 1 5.78304 17.093 2.89617 1.97311 1.99329 -0.167527 0.232225 -4.06375 -0.493101 0.0786346 0.520439
167 1 8.56005 17.078 2.84511 1.63712 1.01306 -0.622391 0.517313 -4.08284 0.373928 0.0880978 0.75078
175 1 5.70632 20.007 2.96341 -3.42076 -2.85137 2.01629 0.129828 -4.07371 0.548148 0.225585 -0.0482231
177 1 8.58858 20.043 3.1601 -1.05917 0.80188 -0.731301 0.898774 -3.99778 -0.377211 -1.09555 -1.4984
75 1 5.71713 19.9361 0.0968178 -4.53949 -0.9021 2.29786 0.123479 -4.08752 -0.284194 0.169571 -0.538812
65 1 5.67248 17.193 0.133298 -1.31158 -3.63153 -0.620776 0.3212 -4.12291 0.795991 0.159693 -0.125111
161 1 14.1852 17.2046 3.05694 -8.06951 -0.86164 0.0732044 0.202817 -4.14714 0.0660387 -0.109833 -0.807097
68 1 9.83757 18.5862 1.59158 1.01621 0.95189 3.77626 0.490242 -4.13142 0.830193 0.308196 0.0999433
70 1 12.7582 18.5098 1.55286 -2.75978 -0.241021 0.901339 0.152829 -4.03354 0.534482 0.869933 -0.541421
169 1 11.4357 17.1907 2.95332 -0.050047 0.778513 1.36961 0.106778 -4.0873 -0.521052 -0.0555301 0.153611
179 1 11.4548 19.9395 3.03505 0.478562 4.61523 -0.247094 0.240145 -4.11109 -0.257879 -0.0385598 -0.495549
69 1 11.3235 17.1806 0.188962 2.51938 -0.439877 2.89062 0.199744 -4.10801 0.396788 -0.0153479 -0.598667
71 1 14.189 20.001 0.195339 -3.02828 1.71166 0.793185 0.286823 -3.98007 0.225167 -0.850238 -0.488269
61 1 14.2026 17.0274 0.156774 -2.79754 0.110739 5.17862 0.280877 -4.04413 0.326134 0.383741 -0.282006
72 1 1.54936 21.3951 1.47377 2.3338 -3.4761 -2.56089 0.168104 -4.14804 -0.524136 0.0366458 -0.266372
74 1 4.24289 21.3195 1.59768 -0.775897 2.76848 -0.309503 0.341827 -4.16542 0.871088 0.0715661 -0.907597
82 1 1.5098 24.075 1.4045 -0.197856 1.54937 -4.05427 0.2785 -4.136 -0.330071 0.307049 0.09769
84 1 4.24694 24.1216 1.54446 1.75243 2.83472 -4.12876 0.380172 -4.02169 0.948554 0.644003 -0.688881
181 1 0.128659 22.763 2.90416 -3.03311 -1.67311 -0.629939 0.0452632 -4.0872 0.0386896 0.0101375 0.0383056
183 1 2.89382 22.7594 2.86366 0.572942 -1.11899 -0.365379 0.143624 -4.11828 -0.118552 0.523835 0.648425
76 1 7.14056 21.2635 1.51945 -0.691281 0.193514 1.05787 0.358014 -4.02336 0.117512 0.935924 -0.0152106
86 1 7.25436 24.2668 1.52195 -2.43118 3.29649 -1.15762 0.393852 -3.97302 -0.306299 -0.534025 -0.473483
185 1 5.72509 22.8979 2.8685 3.67767 -2.14848 -3.35625 0.457567 -4.10033 0.67947 -0.75008 0.0288196
187 1 8.47118 22.692 3.03186 -0.732136 -0.532565 -1.73565 0.55153 -4.09868 0.292047 -0.260713 -0.91769
78 1 9.92402 21.3232 1.46654 -2.14879 -1.2859 1.20999 0.206245 -4.10481 0.0270998 0.195131 0.928438
80 1 12.7264 21.3466 1.53799 -2.02506 0.894117 1.33119 0.0626234 -4.04939 0.990993 -0.347405 -0.624202
88 1 9.99398 24.1702 1.56081 -1.34963 2.3224 -3.76156 0.188112 -4.1314 -0.413991 -0.0338787 0.182515
90 1 12.8226 24.1983 1.435 -3.32555 -1.34099 0.789537 0.17242 -4.08121 -0.792465 -0.2615 0.966962
189 1 11.404 22.6532 2.88693 1.1462 2.87937 3.03823 0.279115 -4.01272 -0.35575 0.891197 0.11976
92 1 1.49183 27.0716 1.50927 -1.55268 0.823337 -0.21304 0.0676866 -4.08769 0.114729 -0.469196 -0.0364407
93 1 2.95679 25.6072 0.106489 -2.98218 -1.24306 2.03838 0.157562 -4.12029 -0.0348132 0.582043 -0.211643
94 1 4.31233 27.0701 1.65977 -2.42482 -0.468398 -1.32983 0.614933 -4.02062 -0.377096 0.182561 -0.65586
193 1 2.87926 25.4829 2.87777 -1.0862 0.475835 1.41936 0.395812 -4.03746 -0.040548 0.630056 0.201431
5 1 5.72241 28.2956 0.164556 2.69086 -0.906142 0.0342517 0.551289 -4.07486 -0.255239 0.744286 -0.479811
107 1 8.62684 28.3911 2.97987 1.62718 -2.83475 -3.52836 0.286068 -4.11421 -0.247283 1.09444 -0.858636
96 1 7.19496 27.0059 1.51138 3.8854 -2.09663 -3.2721 0.0360868 -4.11352 -0.456608 -0.181004 0.100426
195 1 5.7699 25.6353 2.89207 -1.7019 -1.17403 1.74296 0.119191 -4.09481 0.216476 0.115185 0.508956
197 1 8.65402 25.6862 2.94236 -0.592902 -0.620959 0.00800132 0.310577 -4.11115 -0.962424 -0.486631 0.374924
7 1 8.51249 28.4072 0.184642 0.305773 -1.36188 3.04787 0.311835 -4.05436 -0.27986 0.101959 -0.963343
191 1 14.1954 25.5315 2.90086 -0.0885336 -4.4938 -0.48509 0.205653 -4.0074 0.553334 -0.0623618 -0.558042
98 1 9.85719 27.0277 1.46923 2.60699 4.64685 0.62246 0.381725 -4.14366 1.20334 0.0734043 0.0409531
100 1 12.8111 27.1397 1.5215 0.688756 2.41483 -3.36628 0.10883 -4.08438 -0.122249 -0.581029 0.293374
199 1 11.3947 25.7747 2.94386 -1.77748 -0.753815 0.440887 0.574645 -4.04389 0.418728 -0.515439 0.376782
99 1 11.3966 25.6653 0.147146 -3.11862 -0.640777 0.494149 0.134129 -4.09121 0.183636 -0.136294 -0.048655
102 1 1.43258 1.58866 4.39902 7.38627 -3.29026 1.48818 0.289977 -4.0888 0.45438 0.414371 0.110044
104 1 4.40471 1.70471 4.31357 -2.62904 -0.431866 -2.50035 0.22102 -4.10711 -1.09605 0.310506 -0.229688
202 1 1.64591 1.56967 7.12175 2.02744 3.5456 -1.59179 0.580361 -4.05938 -0.828492 0.90879 0.626282
203 1 2.94499 0.259696 5.7618 -1.3304 -3.48688 0.0854903 0.125554 -4.10729 0.523912 -0.446251 -0.88117
204 1 4.18458 1.68524 7.19863 -0.935437 1.48785 2.63114 4.40231 -4.07883 1.62921 -0.708197 -0.463503
213 1 2.88677 3.08084 5.72937 -2.28947 -0.845795 -1.07431 0.333543 -4.12759 0.0418847 -0.508579 0.372901
106 1 7.15632 1.63052 4.29931 0.736671 -1.16949 0.0239501 0.222754 -4.14655 0.48488 0.514963 1.13096
205 1 5.64874 0.299036 5.63451 2.33469 0.995414 0.291621 0.528393 -4.01695 1.19135 -0.833763 1.48741
206 1 7.2548 1.68985 7.16217 -1.46106 -1.55409 1.7364 0.341188 -4.04441 -0.472065 -0.594046 0.26072
207 1 8.58474 0.236208 5.83359 1.31666 3.04051 1.49325 0.138384 -4.06833 0.522985 0.370138 -0.465797
215 1 5.78167 2.95842 5.88317 -1.49422 -2.50707 3.51511 0.493527 -4.06039 -0.455962 0.516901 -0.638072
217 1 8.60442 3.0921 5.78373 -1.80041 2.92479 -5.24384 0.1199 -4.0927 -0.244631 0.279391 0.343252
201 1 14.2143 0.277593 5.83703 -0.76465 1.66164 -3.30675 0.304734 -4.11695 0.105761 -0.33387 -0.367794
211 1 14.1953 3.09372 5.88801 0.131749 -3.47244 0.658656 0.24387 -4.10819 0.413882 -0.321774 -0.464788
108 1 9.98023 1.81548 4.41944 1.78008 -0.0382443 0.481447 0.561386 -4.02025 0.630096 -1.59843 -0.19918
110 1 12.7567 1.63776 4.3343 0.143622 0.261967 0.471904 0.154439 -4.01633 -0.0540937 0.0516268 0.488026
208 1 9.93587 1.5992 7.24626 -2.11946 3.54369 -4.60115 0.124058 -4.19064 0.529817 0.472726 -0.152271
210 1 12.7168 1.62492 7.27301 1.93469 -2.84729 3.21644 0.34879 -4.05664 -0.00430535 -0.0827198 -0.401611
219 1 11.4042 3.08595 5.80716 2.96876 -3.6 -0.306264 0.0646761 -4.05397 -0.250181 0.126223 0.0876214
112 1 1.47335 4.44722 4.47801 -2.08488 5.53109 1.88305 0.220611 -4.03698 0.0990143 0.614944 -0.626533
114 1 4.45714 4.53943 4.48973 0.408107 -1.46821 1.68028 0.419235 -4.10047 -0.261638 -0.257037 -0.0711617
122 1 1.5387 7.19477 4.44702 -2.178 2.10286 -1.52883 0.262669 -4.01202 -0.571525 0.530216 -0.515037
124 1 4.30599 7.3213 4.42563 -1.70609 -0.894295 0.386355 0.155176 -3.99366 -0.213406 0.417887 0.124215
212 1 1.5107 4.56417 7.25208 1.71349 1.1107 -0.37813 0.376922 -4.11253 -0.122517 -0.674931 0.231694
214 1 4.35594 4.34938 7.26918 -3.60792 0.888428 1.10906 4.6325 -4.11393 0.00653373 0.805665 -0.789772
222 1 1.54559 7.23945 7.23185 2.60978 -1.28947 -2.65909 0.154268 -4.12256 -0.624629 0.0279333 0.281253
223 1 3.00176 5.86832 5.84439 -2.9209 -3.41332 -1.19244 0.119215 -4.12481 -0.207592 -0.358872 -0.036588
224 1 4.45542 7.31972 7.2657 2.28078 -2.16034 3.83898 0.287046 -4.06169 -1.20756 0.365065 -0.698703
116 1 7.08446 4.43511 4.42603 -0.717838 -0.661302 1.69127 0.352636 -4.11863 0.609012 0.441765 -0.183477
126 1 7.33953 7.39572 4.40619 1.37971 -3.46356 0.697126 0.480004 -4.01498 -0.794355 -0.465638 -0.231683
216 1 7.15048 4.45322 7.12309 0.663868 1.20315 1.59813 0.312644 -4.14985 0.267451 0.717933 0.67268
225 1 5.7941 6.05956 5.76418 0.299468 -1.75276 -1.18853 0.609612 -4.06194 -0.42997 -0.790434 0.255687
226 1 7.22143 7.27669 7.23447 -1.92098 2.73055 -2.00716 0.108891 -4.15418 -0.0517489 0.0524517 0.117745
227 1 8.61587 5.8789 5.77038 -0.532809 -0.371899 0.126652 0.1251 -4.05649 -0.462642 -0.112869 -0.212462
221 1 14.1524 5.86373 5.85765 0.796103 -1.93786 -0.0692733 0.121509 -4.08349 0.26937 0.320375 -0.718719
118 1 10.0291 4.4796 4.39115 -2.00022 0.251406 -1.34662 0.0966546 -4.14271 -0.150289 0.187994 -0.105893
120 1 12.7727 4.51546 4.33099 -2.93314 -0.0391201 0.674702 0.103928 -4.13484 0.143344 -0.513264 0.741015
128 1 10.0124 7.32217 4.34531 -2.7644 2.28321 3.1472 0.118396 -4.12321 -0.375019 0.0779536 0.172135
130 1 12.7448 7.26336 4.35088 -1.8326 -3.86476 -3.53257 0.152267 -4.1264 0.833496 -0.200412 0.0421149
218 1 9.92391 4.44006 7.22899 2.54663 2.02038 1.45237 0.0868674 -4.13554 0.155154 0.0877529 -0.262114
220 1 12.7806 4.44772 7.22126 -0.879614 -1.25736 1.20844 0.0612501 -4.02574 -0.34686 -0.215589 0.0751303
228 1 9.92162 7.27115 7.30884 0.0778168 -0.255412 1.79302 0.247985 -4.11042 0.143399 0.267497 -0.0211046
229 1 11.2652 5.91426 5.83862 0.58398 1.74186 -1.1864 0.295157 -4.10798 1.04002 -0.210868 0.328244
230 1 12.8446 7.35538 7.15081 2.31232 0.678649 1.21522 0.268761 -4.07783 -0.718445 -1.12429 -0.0122766
132 1 1.49806 10.2454 4.31346 0.926583 1.77752 2.20689 0.195975 -4.0442 -0.188301 -0.676729 0.198227
134 1 4.33421 10.2257 4.44252 -1.95039 -2.01599 -1.69927 0.268107 -4.0568 0.0537586 -0.815037 -0.139131
232 1 1.56015 10.1641 7.24735 2.12226 0.0705619 -0.681687 0.201377 -4.11951 -0.539748 0.134608 -0.331621
233 1 2.86938 8.7146 5.86009 -0.683116 0.194601 5.31636 0.142033 -4.08724 0.310252 -0.205988 -0.355661
234 1 4.30212 10.2221 7.22704 -0.621179 0.157015 -0.123602 5.08891 -4.11596 0.725041 -0.506748 -0.0850029
241 1 0.149986 11.5192 5.76552 -2.41095 0.904273 -0.0212207 0.0893178 -4.08321 -0.417612 0.382702 0.106921
243 1 2.87755 11.525 5.71582 -0.234391 0.744033 0.670144 0.228079 -4.05142 -0.238667 0.428167 0.351013
136 1 7.34978 10.1327 4.42121 0.629619 0.98562 1.20116 0.357753 -4.10156 -0.715246 0.3367 -0.357579
235 1 5.87066 8.81598 5.73839 0.465343 -1.43871 1.4062 0.361569 -4.09865 -0.745697 -0.543697 0.147799
236 1 7.13391 10.1574 7.25305 2.36863 -0.429749 -0.449581 0.253665 -4.13461 0.107669 0.39387 0.23025
237 1 8.63235 8.75913 5.94853 2.56455 0.935182 0.542097 0.334019 -4.13879 -0.44858 -0.133372 -0.722025
245 1 5.87987 11.5851 5.79931 0.240801 -0.541356 -0.243051 0.421834 -4.08466 -0.582362 -0.118519 -0.13426
247 1 8.6244 11.498 5.90228 0.432483 -3.51449 2.45946 0.18568 -4.14946 -0.186547 0.377322 0.165415
231 1 14.2058 8.74973 5.76455 -0.187028 1.52542 1.17023 0.0845946 -4.1485 0.324711 -0.0591854 -0.0978327
138 1 9.92992 10.142 4.35801 -1.64946 -2.47072 4.24093 0.25599 -4.15927 0.732073 -0.35588 0.693258
140 1 12.8378 10.2224 4.36572 -3.06779 0.590986 0.953237 0.184871 -4.15226 -0.150195 -0.516263 0.238762
238 1 10.0462 10.0877 7.2524 4.00462 1.03455 -0.403308 0.136734 -4.05547 0.484943 0.257798 0.358034
239 1 11.364 8.67474 5.77151 1.07823 -1.10089 5.00007 0.0944725 -4.1203 0.462269 0.0578446 0.160957
240 1 12.788 10.0949 7.08474 0.473313 1.12475 -2.36237 0.346679 -4.02743 0.0943605 0.680838 1.30883
249 1 11.3994 11.5636 5.8921 0.00818624 4.09037 -1.73351 0.230268 -4.10093 -0.495152 -0.378688 -0.245114
142 1 1.52181 13.0509 4.4628 -1.28477 -4.17543 2.9049 0.331301 -4.15505 0.0738457 -0.217665 -0.558816
144 1 4.29805 12.8216 4.30366 1.81958 -2.20134 0.0142737 0.393502 -4.09361 0.941232 0.649919 0.351904
152 1 1.51339 15.8576 4.4399 -0.669006 2.84052 -0.820189 5.00825 -4.18574 0.552477 -0.996784 -0.4622
154 1 4.25725 15.7179 4.35827 2.46855 -1.35996 -1.82568 0.301943 -4.08581 0.879783 0.629816 -0.294955
242 1 1.53992 12.9165 7.19778 0.280113 3.4737 -1.1283 0.112517 -4.17692 0.0565668 0.106613 0.450155
244 1 4.24982 12.7782 7.22327 2.14938 -0.0921022 -0.749942 4.98824 -4.11331 0.248013 0.717149 -0.280915
251 1 0.128475 14.4623 5.85987 2.68999 -0.1114 0.508103 0.216503 -4.09101 -0.237384 -0.521128 0.0678913
252 1 1.63436 15.7834 7.11395 -3.12021 0.366244 0.726554 0.433632 -4.0366 0.0686375 -0.194148 0.758425
253 1 3.02926 14.3678 5.83572 0.643288 -2.70259 -2.00417 0.344808 -4.0444 0.0538286 -0.0496772 -0.417566
254 1 4.32401 15.7314 7.31294 -3.29084 -1.84392 -1.68306 0.254232 -4.04307 -0.438781 0.202388 -0.785378
146 1 7.13468 12.9886 4.37202 1.04428 0.1527 -2.62964 0.130559 -3.96131 0.490406 -0.458024 0.00328944
156 1 7.1141 15.8395 4.3978 -5.45427 -4.00032 2.42238 0.282854 -4.05943 0.0285384 -0.436833 0.0614876
246 1 7.17912 12.9922 7.26599 0.991656 -1.68864 -0.448699 0.132447 -4.04813 0.698451 -0.121355 -0.125913
255 1 5.79332 14.3612 5.75639 0.949383 2.2935 -3.25327 0.171737 -4.14831 -0.856403 -0.270593 0.282353
256 1 7.19239 15.8423 7.13465 -0.861153 0.781607 -0.146585 0.355817 -4.05557 0.754293 -0.50747 0.324437
257 1 8.60857 14.4287 5.85148 -2.00567 3.54744 2.76289 0.0709344 -4.10673 -0.275432 -0.431725 -0.758995
148 1 10.0789 12.8625 4.46518 2.53119 -0.204599 1.59625 0.296225 -4.05224 -0.901668 0.633728 -0.223783
150 1 12.8144 12.9078 4.43277 0.842405 -1.04171 -0.584461 0.151796 -4.14972 0.64901 0.266357 -0.455975
158 1 10.0599 15.8093 4.44888 1.95172 -4.28031 -2.67566 0.243529 -4.07032 -0.00596757 -0.272852 -0.0174581
160 1 12.7974 15.8078 4.35371 2.05154 2.79304 -0.0709358 0.177714 -4.10673 -0.232677 -0.515113 0.445461
248 1 10.001 13.0598 7.27075 1.15591 3.93167 -3.97146 0.323994 -4.04826 0.195091 0.018477 0.0194226
250 1 12.9049 12.9601 7.17793 1.45982 -1.9964 -1.75047 0.243607 -4.1094 -0.0480059 -0.334415 0.0615196
258 1 10.0849 15.781 7.23436 3.15439 -2.57917 -3.22034 0.181975 -4.13256 -0.65626 -0.611949 0.575149
259 1 11.5154 14.2983 5.79782 2.36546 0.76793 -0.871017 0.264408 -4.10478 -0.380048 0.453873 0.153389
260 1 12.7221 15.7462 7.26087 1.07372 0.97037 -2.70378 0.521828 -4.02223 1.01246 -0.244385 0.28012
162 1 1.61205 18.4318 4.38422 0.103087 0.473685 0.329909 0.465637 -4.09674 -0.424615 0.810415 0.117064
164 1 4.41893 18.6151 4.27571 -0.211573 3.22505 -5.20284 0.325557 -4.06358 -0.769267 -0.986306 0.448592
262 1 1.64124 18.6991 7.21248 -1.57751 0.894061 -4.43727 0.340996 -4.13018 -0.782414 -0.217864 -0.211258
263 1 3.02324 17.1738 5.78513 -2.37006 -0.133771 0.32695 0.251451 -4.11007 0.0893862 -0.0730645 0.277012
264 1 4.25569 18.5351 7.34989 2.99979 1.41468 -0.253245 0.457958 -4.06186 0.91237 0.27961 -0.339309
271 1 0.239882 19.931 5.69793 -2.9132 -1.24747 -1.34561 0.569791 -4.06352 -0.123498 0.0150854 0.427788
273 1 3.06119 20.0027 5.80042 0.40391 -0.0741893 3.19324 0.349466 -4.12344 -0.352524 0.247117 -0.142828
166 1 7.16241 18.5363 4.36683 0.698547 0.150344 -2.49931 0.160844 -4.18829 -0.0056453 -0.232187 -0.348753
265 1 5.71847 17.1429 5.91381 -1.6126 -0.82668 -3.54668 0.394252 -4.11456 -0.812959 0.674413 -0.982359
266 1 7.25348 18.553 7.13583 1.95445 3.37989 -0.145865 0.521139 -4.04009 -0.588533 -0.0283136 0.138522
267 1 8.63962 17.1234 5.72941 1.62128 1.24999 -1.44411 0.249946 -4.06767 -0.431865 0.302424 0.436492
275 1 5.66392 19.9514 5.80639 0.0670137 -1.38317 -3.87798 0.292222 -4.10962 0.416869 -0.166742 0.220177
277 1 8.52362 20.0544 5.79623 0.898333 -0.0775842 -0.479706 0.2469 -4.13654 0.335654 0.27243 0.57211
261 1 14.1769 17.1487 5.873 3.22524 -0.724689 1.23685 0.346624 -4.13416 0.52017 0.444004 0.163839
168 1 9.9888 18.5753 4.40741 -3.61858 0.233632 -1.83299 0.18782 -4.08945 -0.29124 -0.500292 -0.223332
170 1 12.8038 18.6463 4.50781 0.900172 4.64776 -2.52583 0.307463 -4.09927 -0.183641 -0.443263 -0.58313
268 1 9.90461 18.5053 7.32574 4.57801 -0.241298 0.328247 0.284759 -4.06313 0.479208 0.106391 -0.3405
269 1 11.4148 17.1891 5.97332 1.22914 3.37173 -1.05524 0.358723 -4.06334 0.786526 0.792029 -0.962536
270 1 12.909 18.7314 7.21747 -1.75346 -1.91228 -0.862528 0.520205 -4.08463 -0.473097 -0.509801 0.701446
279 1 11.3598 20.0486 5.77552 2.0114 -4.45816 0.994583 0.247875 -4.06435 -0.449542 -0.316209 0.552658
172 1 1.47279 21.4257 4.41034 2.33301 -0.225112 2.95214 0.262632 -4.10369 0.698217 0.408572 -0.416026
174 1 4.32705 21.4567 4.26525 -1.27528 -0.710527 -1.51037 0.255559 -4.10236 0.104032 0.207536 0.484097
182 1 1.5749 24.1646 4.36528 -0.784188 -3.79054 -2.16947 0.0640444 -4.16397 -0.875952 0.0449846 0.312285
184 1 4.3073 24.238 4.32488 -0.587332 0.565944 -1.32797 0.141423 -4.09027 0.454389 -0.763153 0.131734
272 1 1.50093 21.4332 7.14135 -1.3891 0.701157 2.48604 0.347149 -4.13151 0.538258 -0.699188 1.03475
274 1 4.4257 21.4489 7.29438 2.59471 -0.91757 -0.537123 0.249673 -4.03943 0.260461 -0.123122 -0.563132
281 1 0.183488 22.7914 5.857 -2.74019 0.616667 0.622568 0.142482 -4.00996 -0.789676 0.630414 -0.82063
282 1 1.52472 24.1909 7.30189 -1.23117 0.365724 -0.651941 0.153473 -4.11711 0.99401 0.0780141 -0.739364
283 1 2.92311 22.8102 5.87382 1.18139 2.06881 4.32688 0.160465 -4.06112 0.519503 0.26599 -0.208485
284 1 4.42474 24.2671 7.2712 -2.88227 1.45219 3.65201 0.154525 -4.05254 -0.0802335 -0.746684 -0.387805
176 1 7.06694 21.3141 4.42994 -3.95137 -1.5893 -1.01736 0.383432 -4.06384 0.503878 -0.445955 -0.864023
186 1 7.17879 24.1447 4.27792 2.78581 2.06017 1.88695 0.182195 -4.01227 -0.143803 1.13901 0.335375
276 1 7.10716 21.4372 7.28403 2.60993 -1.18025 -2.38511 0.231359 -4.07424 0.277869 -0.157779 -0.0974082
285 1 5.85589 22.7635 5.67871 1.31531 1.02106 -0.50399 0.510732 -4.0391 -1.35614 1.45279 1.63309
286 1 7.16944 24.2408 7.26549 1.08031 -1.08147 0.839848 0.258266 -4.0659 -0.467527 -0.715117 -0.561725
287 1 8.6565 22.7436 5.72209 2.42 3.87829 -0.705154 0.319465 -4.23296 -0.530868 0.798009 0.78101
178 1 9.99102 21.4199 4.32935 -1.13098 -1.50552 3.15931 0.228314 -4.07255 1.03599 0.222153 0.444015
180 1 12.8404 21.4228 4.45436 -0.471497 0.0061306 0.269058 0.274888 -4.20857 -0.061044 -0.0745924 0.169214
188 1 10.0407 24.0693 4.22945 -1.30348 -2.27273 0.479064 0.777482 -3.98745 -0.106182 0.968265 0.247853
190 1 12.925 24.1389 4.33904 -1.55903 -2.12372 1.13416 0.396629 -4.0387 -1.18891 0.37389 0.333653
278 1 9.94955 21.4304 7.3322 1.38589 -0.978514 1.96516 0.297633 -4.00273 0.0504484 -0.9259 -1.07168
280 1 12.8739 21.3633 7.15461 1.61778 1.13426 1.57654 0.278003 -4.17527 0.0453171 0.0935718 0.310297
288 1 10.0194 24.1956 7.31385 2.68269 2.22443 1.78439 0.357855 -4.02402 -0.742726 0.0721584 -0.252561
289 1 11.3072 22.8471 5.80129 -3.96248 4.07387 -0.259648 0.4799 -4.12687 0.210528 -0.322946 0.160114
290 1 12.8777 24.1232 7.2074 1.06046 -1.98762 3.24564 0.233187 -4.12878 -0.65984 0.106425 -0.00163962
192 1 1.54582 26.9795 4.39621 0.832332 -0.820942 0.130328 0.141707 -4.19755 -0.383671 0.42347 -0.00993412
194 1 4.33343 27.1078 4.34222 -1.61671 -3.20912 1.28134 0.246537 -4.09088 -0.0364918 -1.02432 -0.379613
291 1 0.123486 25.6243 5.91195 -1.91934 -0.395923 -0.219087 0.350475 -4.02149 0.242788 -0.394762 -0.98519
292 1 1.58125 27.1181 7.12774 0.521729 -0.104332 -0.21211 0.247326 -4.16737 0.0175478 -0.515144 0.58144
293 1 3.0799 25.6086 5.77495 2.80973 1.17343 -0.298043 0.376736 -4.03 -0.974172 -0.244072 0.156423
294 1 4.2495 27.1204 7.20038 -1.17778 2.9951 1.58236 0.248001 -4.08543 0.61352 0.0543857 0.0638126
196 1 7.3038 27.0489 4.47563 3.37805 -2.98627 4.17109 0.547529 -4.04216 -0.845061 -0.364081 -0.67745
295 1 5.73558 25.636 5.75531 2.43808 0.681994 -1.51506 0.148924 -4.13823 0.0165007 0.196765 0.102727
296 1 7.17419 27.0665 7.11816 0.309675 6.50899 -1.89168 0.231409 -3.9903 0.294583 1.00003 0.249556
297 1 8.56397 25.5256 5.79907 -0.134748 1.31643 -3.31811 0.334619 -4.15005 1.01935 0.0416456 -0.152166
209 1 11.3537 28.3011 5.86217 -0.393176 -1.47754 0.78913 0.763945 -4.01063 1.05804 1.05402 -1.36688
198 1 9.95313 27.0869 4.28385 0.689763 -0.698924 -1.31982 0.281511 -3.91935 0.594574 -0.318595 1.19918
200 1 13.0099 27.0067 4.3346 5.30296 -0.270392 0.651806 0.920131 -4.022 -0.653748 0.226596 0.501719
298 1 9.9521 27.1594 7.27371 1.28797 -2.74568 -4.13594 0.322596 -4.06157 -0.811731 -0.848351 0.714448
299 1 11.357 25.6421 5.83916 0.613569 6.18239 1.53807 0.316118 -4.06948 0.429466 -0.247346 -0.422816
300 1 12.9347 27.0657 7.26641 -0.577292 -1.28953 -3.83829 0.290913 -4.09965 -0.850127 0.131268 0.271781
301 1 0.190771 0.330155 8.53066 0.5675 -0.168496 -2.46061 4.62204 -4.13714 0.409257 -0.493812 0.544769
302 1 1.52998 1.64637 10.2021 -1.42736 -3.15682 0.972455 0.264672 -4.09286 0.139138 -0.0388972 -0.202706
303 1 2.87995 0.257353 8.67566 0.341516 -0.0404191 -2.60214 0.177577 -4.11869 0.280761 -0.335544 0.34024
304 1 4.29008 1.6221 10.0525 -4.04083 -0.468429 4.02966 0.146506 -4.07198 -0.112955 0.963375 0.171772
311 1 0.149724 2.85167 8.66784 -1.74976 0.28104 0.763369 4.90011 -4.06239 -0.176856 1.81022 -0.855255
313 1 2.89377 2.99568 8.56103 0.148637 -0.416692 -0.495992 0.322895 -4.02346 -0.416219 0.6523 1.12258
403 1 2.9679 0.297361 11.5514 0.394335 0.406084 2.23505 0.17077 -4.10383 0.170981 -0.841693 -0.368224
411 1 0.156785 3.04543 11.5087 0.660313 -0.658618 -1.38298 0.131319 -4.13263 -0.295013 0.741591 -0.21485
413 1 2.87494 3.0559 11.6125 -3.05234 -3.9865 -0.430171 0.307454 -4.14474 0.276151 0.457773 -0.578951
305 1 5.63949 0.272746 8.67159 -2.6762 0.601797 -1.53878 0.268185 -4.04499 0.885515 0.409488 -0.476699
306 1 7.16827 1.7968 10.0802 -0.497955 1.38302 -0.554626 0.421697 -3.95218 -0.383933 -1.61079 0.73779
307 1 8.54451 0.339894 8.71341 2.06573 -1.47317 -0.377265 0.304289 -4.11625 -0.444141 -1.20796 0.0257283
315 1 5.88369 2.98404 8.5928 0.746495 3.22544 0.384377 0.617201 -4.0466 -1.02283 0.404309 -0.175704
317 1 8.5575 3.091 8.59399 0.877774 1.33708 0.284955 0.0706809 -4.21524 -0.607069 -0.0991613 0.236769