ITEM: TIMESTEP
136250
ITEM: NUMBER OF ATOMS
2000
ITEM: BOX BOUNDS pp pp pp
1.0838953229856951e-01 1.4221610467701321e+01
2.1677906459713903e-01 2.8443220935402643e+01
-3.4122945757029721e+00 6.0732294575702532e+01
ITEM: ATOMS id type x y z vx vy vz c_csym c_peratom fx fy fz
2 1 1.62332 1.66863 -1.80049 -0.282889 -3.25185 -0.636516 0.27935 -3.9759 -0.636818 0.200507 -0.235432
4 1 4.35789 1.61575 -1.87835 0.990702 -5.33602 3.45801 5.94843 -3.97029 0.430419 0.0252871 0.460404
11 1 0.115605 3.14255 -3.36048 0.617832 -0.194419 3.50607 0.242172 -3.90018 -0.130759 0.172232 -0.287396
101 1 0.126621 0.284403 -0.234321 -1.57173 1.46596 2.1275 0.153241 -4.00732 -0.144122 -0.333844 -0.0543437
103 1 2.85007 0.270771 -0.170007 0.287695 0.367304 -1.8153 0.247691 -3.86731 0.457749 0.273774 0.219223
111 1 0.168447 3.08626 -0.205772 -2.2925 0.592843 0.179022 0.134772 -3.97017 0.164453 0.0227417 -0.465519
113 1 2.87763 3.13123 -0.145892 -1.71434 2.42111 -1.1208 5.86262 -3.93347 0.0922968 0.0685145 -0.00814118
13 1 2.94284 3.10367 -3.39177 -0.0706192 -1.95523 0.774801 0.075655 -3.89676 -0.214632 -0.104906 -0.135899
6 1 7.17995 1.58532 -1.80778 -1.53139 -1.81767 -2.43971 0.233611 -3.95046 -0.130248 0.536514 0.066725
17 1 8.63608 3.25517 -3.33762 -1.24355 -0.0988133 -0.860341 9.82497 -3.94656 -0.422143 -0.734306 0.0294036
105 1 5.90739 0.22905 -0.204206 0.812795 -1.48127 -4.16198 0.296247 -3.95227 -0.311961 -0.371507 0.357871
115 1 5.79048 3.13764 -0.220111 -0.932742 0.818202 0.0439582 0.185259 -3.93141 -0.0763888 -0.592421 -0.0850239
117 1 8.60233 3.08029 -0.133405 0.475293 0.415756 -1.302 0.177027 -3.92127 0.00568874 -0.124855 -0.579786
15 1 5.86915 3.09703 -3.35067 -1.1078 -3.23994 -0.243916 0.30315 -3.87047 -0.659662 0.156591 0.0349322
8 1 9.98472 1.71462 -1.93217 1.02028 2.64764 -1.65962 0.440195 -3.93606 -0.0344691 -0.356818 0.327832
9 1 11.3244 0.287262 -3.30401 -0.628437 1.37052 0.162777 0.429399 -3.93076 0.938351 -0.308531 0.00502369
10 1 12.8557 1.68831 -1.87778 -0.261261 2.58464 0.684826 0.146069 -3.91389 -0.355244 0.293718 0.207879
109 1 11.3921 0.306018 -0.236471 4.17545 -4.26001 3.01885 0.173166 -3.93109 0.0669404 -0.617459 -0.482198
119 1 11.4562 3.11085 -0.294811 -0.877516 0.612354 1.13148 0.162894 -3.97642 -0.437875 -0.336616 -0.0145282
12 1 1.52356 4.6359 -1.91073 1.18436 1.40208 1.05812 0.605068 -3.92355 0.0352973 -0.650393 0.167669
14 1 4.34915 4.42365 -1.70022 -0.761965 1.11821 -1.53086 0.281471 -3.98618 0.267777 0.528843 -0.291544
22 1 1.54026 7.32431 -1.88131 0.529166 1.27637 -0.648244 5.89219 -3.90367 0.148191 0.0565706 0.650164
23 1 3.01689 5.92797 -3.3826 4.21453 0.286138 -0.65637 0.227506 -3.90592 -0.0355897 0.191584 -0.541637
24 1 4.35552 7.36387 -1.80589 0.718611 1.41969 0.425215 0.113097 -3.92963 -0.012976 0.242744 -0.0406319
121 1 0.132435 5.82793 -0.213253 -2.35864 3.10392 -0.471262 0.195089 -3.91786 -0.0024088 0.213028 0.255513
123 1 3.01618 5.86763 -0.110906 1.00139 1.8653 -1.24788 0.265359 -3.95318 -0.46235 0.162312 0.0732378
16 1 7.14135 4.5226 -1.72299 0.603539 0.154603 0.133915 0.166191 -3.95796 0.0832662 -0.0324186 -0.441948
25 1 5.70759 5.92495 -3.28556 -0.827089 1.1553 2.35682 5.11243 -3.98981 0.169403 -0.292014 -0.451701
26 1 7.1412 7.16975 -1.85913 -0.0337704 2.62343 0.778117 5.27916 -3.8655 -0.304234 0.706315 0.167324
125 1 5.74127 5.95799 -0.1667 -0.136011 -2.75282 -0.154075 0.139372 -4.05365 -0.172888 0.0582146 0.382799
127 1 8.57446 5.88387 -0.312218 -1.51658 -3.67076 0.00771245 0.406533 -3.93039 0.0793301 -0.153939 0.340068
18 1 10.0587 4.47472 -1.80431 2.01504 1.15568 0.108705 0.221214 -3.95459 -0.0928371 0.300923 0.125272
20 1 12.7939 4.54238 -1.84046 -0.022531 3.00342 -1.17168 0.065228 -4.00798 -0.0627013 0.0710574 0.452275
28 1 10.1169 7.35391 -1.70844 1.08986 -1.21663 1.80841 0.4222 -3.93088 -0.285456 -0.132258 -0.182708
29 1 11.4127 5.98723 -3.39311 1.3822 1.47477 -0.555896 0.0545748 -3.9788 -0.570637 -0.231607 -0.357839
30 1 12.8531 7.28188 -1.73896 0.362699 -0.519128 0.486825 0.139289 -3.98698 -0.393796 0.329004 -0.0512108
129 1 11.3642 5.90889 -0.159019 -0.995542 1.01394 2.2528 0.114227 -4.00905 0.497309 -0.249054 -0.27492
32 1 1.48279 10.1923 -1.87861 2.66336 -1.18469 0.933482 0.247835 -4.03588 0.347832 -0.616874 -0.0598102
34 1 4.32744 10.195 -1.87762 -3.42019 -1.92301 1.41173 0.203988 -3.94627 -0.0193645 -0.374748 0.0600546
43 1 2.92107 11.628 -3.38815 2.17426 0.782241 3.50485 0.124465 -4.02113 0.0404299 -0.65996 -0.489174
133 1 2.87707 8.77788 -0.177329 -1.44944 0.975575 0.710255 0.0936315 -3.88273 0.485348 0.0508478 0.0374286
141 1 0.146359 11.6297 -0.300454 -2.20193 -7.04944 -1.51669 0.343674 -4.00118 0.0734488 0.27124 0.511485
143 1 2.92416 11.521 -0.202744 -0.572232 1.1909 1.77002 0.169127 -4.0173 -0.0761946 -0.0360423 -0.480837
36 1 7.17897 10.1662 -1.75498 0.10168 3.47717 0.174941 0.174552 -3.87309 -0.0198328 -0.155816 -0.248966
47 1 8.63625 11.4798 -3.30108 -1.46078 2.66256 0.234251 0.301025 -3.95506 -0.197339 0.0282381 -0.608775
135 1 5.71447 8.72482 -0.0951803 -0.880733 0.590278 -0.109653 5.80034 -3.90915 0.596287 -0.103704 0.03091
137 1 8.61908 8.74613 -0.27253 -4.19951 1.4167 -2.48788 0.384571 -3.96927 -0.0469779 0.117284 -0.493025
145 1 5.78797 11.4174 -0.199948 0.913579 -3.10787 0.676852 5.81536 -3.92183 -0.265412 0.251286 0.111009
147 1 8.63173 11.5707 -0.0891925 -2.52053 -2.66134 -2.016 0.20261 -3.96051 -0.363165 0.453875 -0.950519
37 1 8.64539 8.6808 -3.26891 -0.410704 1.96136 0.795798 5.5247 -4.00948 -0.0653351 -0.00274187 0.335905
41 1 14.1834 11.5242 -3.30532 -1.35835 -5.95404 3.83557 0.261606 -3.97584 0.075532 0.569412 -0.370652
131 1 14.189 8.78043 -0.0726486 -1.59748 2.05417 3.03081 0.435482 -3.88238 0.649305 -0.127014 -0.140611
38 1 10.1092 10.2499 -1.68115 0.647054 3.02786 -2.05404 0.502157 -3.97189 -0.836444 -0.397907 0.232762
39 1 11.3428 8.78317 -3.35575 2.80774 -0.622395 -1.00191 0.224587 -3.96549 0.476627 -0.0192092 0.432222
40 1 12.8549 10.1114 -1.66227 -1.75728 -0.634733 -0.267602 0.262486 -3.96547 -0.497438 0.0610079 -0.183012
139 1 11.4119 8.69776 -0.108985 -0.425376 2.4171 -0.0430739 0.114249 -4.01241 0.372147 0.698932 -0.0392916
149 1 11.4267 11.5446 -0.108033 -0.904464 -0.906018 0.248794 0.183876 -3.97678 0.347086 0.550147 -0.50837
49 1 11.351 11.4979 -3.32485 -3.94296 -1.72452 -3.57845 0.147711 -3.92442 0.0974249 0.392902 -0.0953272
42 1 1.60077 12.9976 -1.89646 -0.841826 -0.173751 0.753914 0.445831 -3.95302 -0.332313 -0.127002 0.493715
44 1 4.30049 12.9516 -1.9129 -1.17519 0.372824 -0.13007 6.17801 -4.02139 0.225749 -0.325621 0.0513343
52 1 1.58776 15.7356 -1.64799 -0.585983 1.26946 1.71295 5.25807 -3.82948 -0.399862 0.0697228 -0.63763
54 1 4.38463 15.6552 -1.80951 0.269637 0.959657 1.9614 0.285193 -3.99425 -0.343004 0.012883 -0.522453
153 1 2.9946 14.2978 -0.188537 -3.03426 -0.361765 3.65674 0.168995 -3.91828 -0.110171 0.0751197 0.0699744
46 1 7.13899 12.8477 -1.83613 -0.042375 -0.703018 -2.37022 5.32706 -3.92648 -0.0610964 0.385678 0.162767
56 1 7.08452 15.7726 -1.89512 0.19616 0.505449 -1.21975 0.271888 -4.00276 0.123941 -0.0413683 0.311439
155 1 5.76502 14.3443 -0.250137 -0.699273 2.50818 -2.71856 0.105158 -3.95592 0.449288 -0.120577 -0.0829941
157 1 8.53251 14.4644 -0.15913 1.77519 1.9958 -4.01974 5.28228 -3.95408 -0.00319124 -0.59624 -0.100436
57 1 8.49816 14.3386 -3.2601 5.27468 2.46447 0.151665 0.550405 -3.84994 0.420523 0.0511859 -0.493977
51 1 14.0057 14.3518 -3.41184 5.08997 3.62125 -2.07853 5.00405 -3.86949 0.83383 -0.0845526 -0.000665301
151 1 14.2009 14.4155 -0.179449 -4.71089 2.01634 -0.85659 0.129642 -3.87117 0.156886 -0.404803 0.0269367
48 1 9.93985 13.0563 -1.78127 2.86016 2.34417 0.701272 5.29763 -3.94696 0.289248 -0.406947 0.349462
50 1 12.7181 12.9904 -1.78419 0.559624 -1.36974 -0.820506 0.187465 -3.95311 0.00491686 -0.0110934 -0.119057
58 1 9.99316 15.7186 -1.8008 -3.3381 -1.51398 5.38263 0.182874 -3.9972 0.239485 0.392875 -0.260396
60 1 12.7967 15.7437 -1.7947 1.53771 1.90327 -4.70531 0.115283 -4.00026 -0.419902 -0.192223 0.376283
159 1 11.3491 14.3264 -0.125258 -0.265735 -1.65506 -3.98071 0.156008 -3.96105 0.153027 0.526935 -0.292402
62 1 1.43944 18.5161 -1.75626 0.272627 0.831543 -0.200207 0.118003 -3.91552 0.383838 0.486699 -0.561766
64 1 4.38586 18.6552 -1.75176 1.24428 1.0664 2.86252 5.43164 -3.91994 -0.481516 -0.582196 0.226267
163 1 2.94245 17.1558 -0.301904 0.341627 2.40032 0.506019 0.421123 -3.94233 0.556448 0.292274 0.275429
171 1 0.141802 19.9783 -0.0850405 -0.0590841 -1.37942 4.27312 0.180933 -4.02196 -0.38275 -0.0329744 -0.30915
173 1 2.89555 19.9823 -0.212279 0.785649 -1.23368 2.3689 0.15184 -3.99614 -0.748377 -0.343567 0.336201
66 1 7.24355 18.6165 -1.7526 2.75597 -4.35103 0.905848 4.91681 -4.01206 -0.347507 -0.161209 0.0671845
67 1 8.57677 17.1461 -3.38625 -4.30079 -3.56988 1.31798 0.0496134 -4.03918 -0.186621 -0.222477 -0.141322
165 1 5.78304 17.093 -0.259878 1.97311 1.99329 -0.167527 0.24818 -3.94496 -0.136195 0.41644 0.364013
167 1 8.56005 17.078 -0.317197 1.63712 1.01306 -0.622391 4.85929 -3.99168 0.375992 -0.39478 0.459228
175 1 5.70632 20.007 -0.184406 -3.42076 -2.85137 2.01629 0.138343 -3.95446 0.17897 -0.0192361 0.00131725
177 1 8.58858 20.043 0.0363809 -1.05917 0.80188 -0.731301 1.07068 -3.92337 -0.203105 -0.432712 -0.475784
75 1 5.71713 19.9361 -3.40215 -4.53949 -0.9021 2.29786 0.135911 -3.94701 0.121538 0.00429701 -0.586752
65 1 5.67248 17.193 -3.36121 -1.31158 -3.63153 -0.620776 0.344313 -3.98613 0.198117 0.0731798 -0.113447
161 1 14.1852 17.2046 -0.0794219 -8.06951 -0.86164 0.0732044 0.227953 -4.02479 -0.0257879 -0.136783 -0.329293
68 1 9.83757 18.5862 -1.72429 1.01621 0.95189 3.77626 5.50153 -3.98701 0.580711 0.59563 0.177112
70 1 12.7582 18.5098 -1.76775 -2.75978 -0.241021 0.901339 0.160102 -3.87406 0.237577 0.240901 -0.0177703
169 1 11.4357 17.1907 -0.195734 -0.050047 0.778513 1.36961 0.113783 -3.93911 -0.398762 -0.259803 0.425345
179 1 11.4548 19.9395 -0.10399 0.478562 4.61523 -0.247094 0.255903 -3.97805 -0.0267832 0.286193 -0.412604
69 1 11.3235 17.1806 -3.29872 2.51938 -0.439877 2.89062 0.231124 -3.94031 0.38819 -0.0642653 -0.436267
71 1 14.189 20.001 -3.29156 -3.02828 1.71166 0.793185 0.317067 -3.84005 0.00463118 -0.899831 -0.324359
61 1 14.2026 17.0274 -3.33485 -2.79754 0.110739 5.17862 0.307798 -3.89894 0.0154404 0.369581 -0.105075
72 1 1.54936 21.3951 -1.85653 2.3338 -3.4761 -2.56089 0.181945 -4.02181 -0.227475 -0.0387999 -0.392381
74 1 4.24289 21.3195 -1.71743 -0.775897 2.76848 -0.309503 0.388156 -4.08839 0.693647 0.221283 -0.160418
82 1 1.5098 24.075 -1.93428 -0.197856 1.54937 -4.05427 0.303836 -4.00065 -0.00915759 0.393536 -0.0418168
84 1 4.24694 24.1216 -1.77718 1.75243 2.83472 -4.12876 0.406502 -3.91844 0.279773 0.617397 -0.393344
181 1 0.128659 22.763 -0.250916 -3.03311 -1.67311 -0.629939 0.0486348 -4.00373 -0.0191645 -0.274431 -0.210729
183 1 2.89382 22.7594 -0.296372 0.572942 -1.11899 -0.365379 0.1737 -4.04804 -0.154686 0.241675 0.602264
76 1 7.14056 21.2635 -1.80525 -0.691281 0.193514 1.05787 5.50551 -3.83556 0.0919609 0.555679 0.219223
86 1 7.25436 24.2668 -1.80244 -2.43118 3.29649 -1.15762 5.8517 -3.84653 -0.270285 -0.577157 -0.194504
185 1 5.72509 22.8979 -0.290945 3.67767 -2.14848 -3.35625 0.480867 -3.98425 0.251323 -0.657065 0.0705494
187 1 8.47118 22.692 -0.107567 -0.732136 -0.532565 -1.73565 5.35393 -3.95254 -0.128555 0.0693025 -0.251695
78 1 9.92402 21.3232 -1.86464 -2.14879 -1.2859 1.20999 0.234032 -3.96051 -0.336208 -0.00575556 0.906438
80 1 12.7264 21.3466 -1.78444 -2.02506 0.894117 1.33119 0.0655071 -3.92029 0.16463 0.356992 0.0699284
88 1 9.99398 24.1702 -1.75883 -1.34963 2.3224 -3.76156 0.21462 -3.93495 -0.564283 0.118213 0.100104
90 1 12.8226 24.1983 -1.90004 -3.32555 -1.34099 0.789537 0.187554 -3.89982 -0.818943 -0.343917 0.0533231
189 1 11.404 22.6532 -0.270255 1.1462 2.87937 3.03823 0.29455 -3.87507 0.08637 0.644053 0.272401
92 1 1.49183 27.0716 -1.81668 -1.55268 0.823337 -0.21304 0.0699434 -3.91251 0.107209 -0.507464 0.184113
93 1 2.95679 25.6072 -3.3913 -2.98218 -1.24306 2.03838 0.178838 -3.92357 -0.0596269 -0.0057797 -0.19645
94 1 4.31233 27.0701 -1.64775 -2.42482 -0.468398 -1.32983 0.721425 -3.91041 -0.0877224 -0.0731484 -0.336531
193 1 2.87926 25.4829 -0.280542 -1.0862 0.475835 1.41936 5.67021 -3.91862 0.254217 0.837752 -0.113601
5 1 5.72241 28.2956 -3.32612 2.69086 -0.906142 0.0342517 5.19439 -3.9522 -0.0130089 0.105232 -0.217227
107 1 8.62684 28.3911 -0.165929 1.62718 -2.83475 -3.52836 5.74575 -4.01726 0.128258 1.03328 -0.41769
96 1 7.19496 27.0059 -1.81431 3.8854 -2.09663 -3.2721 0.0397947 -4.01632 -0.170309 0.0570438 0.492605
195 1 5.7699 25.6353 -0.264483 -1.7019 -1.17403 1.74296 6.00286 -3.87903 -0.230002 -0.343009 0.535212
197 1 8.65402 25.6862 -0.208032 -0.592902 -0.620959 0.00800132 0.328486 -4.01197 -0.744627 -0.610667 0.353447
7 1 8.51249 28.4072 -3.30357 0.305773 -1.36188 3.04787 0.359191 -3.94895 -0.00454544 -0.258338 -0.721972
191 1 14.1954 25.5315 -0.25462 -0.0885336 -4.4938 -0.48509 0.209345 -3.88237 0.748248 0.344852 -0.6739
98 1 9.85719 27.0277 -1.86162 2.60699 4.64685 0.62246 5.61504 -4.04769 0.474321 0.294183 -0.190813
100 1 12.8111 27.1397 -1.80295 0.688756 2.41483 -3.36628 0.111827 -3.93248 0.0975961 -0.451854 -0.460395
199 1 11.3947 25.7747 -0.206348 -1.77748 -0.753815 0.440887 0.588581 -3.8886 0.560737 -0.365452 -0.0808673
99 1 11.3966 25.6653 -3.34566 -3.11862 -0.640777 0.494149 0.143537 -3.96742 -0.157179 -0.25012 0.0304364
102 1 1.43258 1.58866 1.42707 7.38627 -3.29026 1.48818 0.299491 -4.01578 0.202093 0.198086 0.197352
104 1 4.40471 1.70471 1.33115 -2.62904 -0.431866 -2.50035 0.236794 -3.92046 -0.746703 0.0702218 -0.652306
202 1 1.64591 1.56967 4.48333 2.02744 3.5456 -1.59179 4.74905 -4.02198 -0.519746 0.605374 -0.273315
203 1 2.94499 0.259696 2.95679 -1.3304 -3.48688 0.0854903 0.131053 -4.03359 0.18101 0.324958 -0.405406
204 1 4.18458 1.68524 4.56963 -0.935437 1.48785 2.63114 4.68818 -3.9754 1.19549 -0.0697927 -0.351329
213 1 2.88677 3.08084 2.92038 -2.28947 -0.845795 -1.07431 0.366336 -3.99154 0.0234797 -0.04077 0.216687
106 1 7.15632 1.63052 1.31514 0.736671 -1.16949 0.0239501 0.253126 -4.0347 0.567417 0.0793384 0.829713
205 1 5.64874 0.299036 2.8139 2.33469 0.995414 0.291621 4.76329 -3.88379 0.566256 -0.0772856 1.01673
206 1 7.2548 1.68985 4.5287 -1.46106 -1.55409 1.7364 4.92325 -3.92812 -0.259561 -0.333267 -0.0615579
207 1 8.58474 0.236208 3.03737 1.31666 3.04051 1.49325 0.15855 -3.94148 0.285363 0.221688 -0.902682
215 1 5.78167 2.95842 3.09303 -1.49422 -2.50707 3.51511 0.540592 -3.93707 -0.557434 0.588759 -0.493305
217 1 8.60442 3.0921 2.9814 -1.80041 2.92479 -5.24384 0.123369 -4.00461 -0.119067 -0.0711614 0.0140824
201 1 14.2143 0.277593 3.04123 -0.76465 1.66164 -3.30675 0.328768 -3.98088 -0.481393 0.0576017 0.175875
211 1 14.1953 3.09372 3.09845 0.131749 -3.47244 0.658656 0.286855 -3.91415 0.0443025 -0.597942 0.26138
108 1 9.98023 1.81548 1.44999 1.78008 -0.0382443 0.481447 5.75476 -3.87464 0.359445 -1.07993 0.0499532
110 1 12.7567 1.63776 1.35442 0.143622 0.261967 0.471904 0.165379 -3.8608 0.432898 0.183125 0.46779
219 1 11.4042 3.08595 3.0077 2.96876 -3.6 -0.306264 0.0665374 -3.91665 -0.306569 -0.121299 -0.104599
112 1 1.47335 4.44722 1.51573 -2.08488 5.53109 1.88305 0.252623 -3.92834 0.212196 0.366373 0.149489
114 1 4.45714 4.53943 1.52889 0.408107 -1.46821 1.68028 5.30448 -3.99744 -0.423912 -0.214037 -0.396605
122 1 1.5387 7.19477 1.48094 -2.178 2.10286 -1.52883 0.268909 -3.85673 -0.428067 0.488702 -0.201618
124 1 4.30599 7.3213 1.45693 -1.70609 -0.894295 0.386355 0.160966 -3.9305 0.233894 0.223369 0.033706
223 1 3.00176 5.86832 3.0495 -2.9209 -3.41332 -1.19244 0.120506 -3.98251 -0.120206 -0.143809 0.0856643
116 1 7.08446 4.43511 1.45738 -0.717838 -0.661302 1.69127 5.41495 -3.96579 0.654826 0.162957 -0.218479
126 1 7.33953 7.39572 1.43512 1.37971 -3.46356 0.697126 5.61794 -3.86127 -0.616795 -0.651388 -0.0480343
216 1 7.15048 4.45322 4.48483 0.663868 1.20315 1.59813 0.358724 -4.02279 0.221404 0.508367 -0.0411534
225 1 5.7941 6.05956 2.95945 0.299468 -1.75276 -1.18853 5.70082 -3.92816 -0.0151415 -0.185305 0.0247944
227 1 8.61587 5.8789 2.96641 -0.532809 -0.371899 0.126652 0.140449 -3.946 -0.233748 -0.0335755 0.0506818
221 1 14.1524 5.86373 3.06437 0.796103 -1.93786 -0.0692733 0.13335 -3.97857 0.0329308 0.245315 0.054633
118 1 10.0291 4.4796 1.41823 -2.00022 0.251406 -1.34662 0.10751 -4.0262 -0.300023 -0.149561 -0.0593371
120 1 12.7727 4.51546 1.3507 -2.93314 -0.0391201 0.674702 0.122173 -3.97793 0.0522551 -0.258137 0.16176
128 1 10.0124 7.32217 1.36678 -2.7644 2.28321 3.1472 5.72658 -4.0122 -0.705805 0.148986 0.244513
130 1 12.7448 7.26336 1.37302 -1.8326 -3.86476 -3.53257 0.172329 -3.99155 0.613151 -0.137526 0.431627
218 1 9.92391 4.44006 4.6037 2.54663 2.02038 1.45237 0.0897902 -3.99953 0.24898 0.176403 0.125582
220 1 12.7806 4.44772 4.59503 -0.879614 -1.25736 1.20844 0.0657905 -3.8712 -0.18078 0.261882 0.057268
229 1 11.2652 5.91426 3.04302 0.58398 1.74186 -1.1864 5.34609 -3.99578 0.986533 -0.122804 0.106033
230 1 12.8446 7.35538 4.51595 2.31232 0.678649 1.21522 0.282243 -3.95318 -0.222882 -0.30047 0.406822
132 1 1.49806 10.2454 1.33102 0.926583 1.77752 2.20689 0.209149 -3.95244 0.0624068 -0.704966 0.270727
134 1 4.33421 10.2257 1.47589 -1.95039 -2.01599 -1.69927 5.52306 -3.91866 -0.145591 -0.514277 -0.00325154
233 1 2.86938 8.7146 3.06711 -0.683116 0.194601 5.31636 0.148881 -3.86532 0.0839249 -0.251371 -0.261114
234 1 4.30212 10.2221 4.60152 -0.621179 0.157015 -0.123602 5.57407 -3.93937 0.384152 -0.259865 0.251979
241 1 0.149986 11.5192 2.96096 -2.41095 0.904273 -0.0212207 0.0958502 -3.99351 -0.0073699 0.169486 0.25982
243 1 2.87755 11.525 2.90517 -0.234391 0.744033 0.670144 0.263308 -3.96594 -0.204784 0.101264 0.204105
136 1 7.34978 10.1327 1.45197 0.629619 0.98562 1.20116 5.12605 -4.01936 -0.742148 -0.0409742 0.0238339
235 1 5.87066 8.81598 2.93051 0.465343 -1.43871 1.4062 0.400433 -3.9591 -0.800023 -0.266033 0.0669797
237 1 8.63235 8.75913 3.16639 2.56455 0.935182 0.542097 0.40338 -4.05609 -0.105484 -0.12016 -0.493029
245 1 5.87987 11.5851 2.99889 0.240801 -0.541356 -0.243051 0.425978 -3.95179 -0.663641 -0.0927197 0.115229
247 1 8.6244 11.498 3.11447 0.432483 -3.51449 2.45946 0.207828 -4.03886 -0.021828 0.650985 0.261278
231 1 14.2058 8.74973 2.95987 -0.187028 1.52542 1.17023 0.0881505 -3.99308 0.42816 0.0890993 0.0390334
138 1 9.92992 10.142 1.38103 -1.64946 -2.47072 4.24093 5.38536 -4.04665 0.843254 -0.413838 0.141586
140 1 12.8378 10.2224 1.38968 -3.06779 0.590986 0.953237 0.202641 -4.00586 -0.545811 -0.237711 -0.0334124
239 1 11.364 8.67474 2.96768 1.07823 -1.10089 5.00007 0.103537 -3.99139 0.141481 0.330052 0.0902714
240 1 12.788 10.0949 4.44178 0.473313 1.12475 -2.36237 5.23643 -3.89986 0.410684 0.309439 0.53343
249 1 11.3994 11.5636 3.10305 0.00818624 4.09037 -1.73351 0.26879 -3.98269 -0.219502 -0.467727 -0.128996
142 1 1.52181 13.0509 1.49866 -1.28477 -4.17543 2.9049 0.374352 -3.98442 -0.227781 -0.00943936 -0.301678
144 1 4.29805 12.8216 1.32003 1.81958 -2.20134 0.0142737 5.01607 -3.93847 0.605203 0.786214 0.299934
152 1 1.51339 15.8576 1.47295 -0.669006 2.84052 -0.820189 5.50318 -4.05789 0.15714 -0.899315 -0.451108
154 1 4.25725 15.7179 1.38132 2.46855 -1.35996 -1.82568 0.31127 -3.94369 0.677823 0.590738 -0.0349969
242 1 1.53992 12.9165 4.56867 0.280113 3.4737 -1.1283 0.128756 -4.00745 0.0699914 0.220982 -0.193352
244 1 4.24982 12.7782 4.59728 2.14938 -0.0921022 -0.749942 5.50692 -3.94746 0.186332 0.520613 -0.182413
251 1 0.128475 14.4623 3.06687 2.68999 -0.1114 0.508103 0.234351 -3.95171 -0.52445 -0.0242129 -0.197956
252 1 1.63436 15.7834 4.47457 -3.12021 0.366244 0.726554 4.7479 -3.9129 -0.310196 -0.0285058 0.230841
253 1 3.02926 14.3678 3.03976 0.643288 -2.70259 -2.00417 0.367869 -3.94786 -0.0841191 0.131082 -0.0783702
146 1 7.13468 12.9886 1.39676 1.04428 0.1527 -2.62964 0.133834 -3.8385 0.732274 -0.339909 0.087193
156 1 7.1141 15.8395 1.42569 -5.45427 -4.00032 2.42238 0.302834 -3.96675 0.441094 0.178442 -0.0825644
255 1 5.79332 14.3612 2.95071 0.949383 2.2935 -3.25327 0.187168 -3.94391 -0.273978 -0.0371191 0.219274
256 1 7.19239 15.8423 4.49781 -0.861153 0.781607 -0.146585 0.404092 -4.00496 0.335344 -0.36411 0.379511
257 1 8.60857 14.4287 3.05745 -2.00567 3.54744 2.76289 0.0764685 -3.93798 -0.217381 -0.245278 -0.29069
148 1 10.0789 12.8625 1.50133 2.53119 -0.204599 1.59625 5.35395 -3.92509 -0.186965 0.389877 -0.236077
150 1 12.8144 12.9078 1.46495 0.842405 -1.04171 -0.584461 0.165021 -4.01982 0.129178 -0.0156507 -0.146921
158 1 10.0599 15.8093 1.48303 1.95172 -4.28031 -2.67566 0.269669 -3.9014 0.0848573 -0.0059548 0.258462
160 1 12.7974 15.8078 1.37621 2.05154 2.79304 -0.0709358 0.209052 -3.94998 -0.00100155 -0.457118 0.788685
250 1 12.9049 12.9601 4.54639 1.45982 -1.9964 -1.75047 0.283448 -3.98749 -0.410271 -0.144806 0.260562
259 1 11.5154 14.2983 2.99722 2.36546 0.76793 -0.871017 0.270626 -3.99546 -0.66149 0.292477 -0.193744
162 1 1.61205 18.4318 1.41046 0.103087 0.473685 0.329909 5.23087 -3.95714 -0.187837 0.433066 0.0660793
164 1 4.41893 18.6151 1.28865 -0.211573 3.22505 -5.20284 0.368051 -3.96024 -0.514101 -0.480575 0.110211
262 1 1.64124 18.6991 4.58517 -1.57751 0.894061 -4.43727 5.23406 -3.98503 -0.841446 -0.641251 -0.0159773
263 1 3.02324 17.1738 2.98298 -2.37006 -0.133771 0.32695 0.276648 -4.00413 -0.194507 0.52578 0.609845
271 1 0.239882 19.931 2.88509 -2.9132 -1.24747 -1.34561 0.624873 -3.97731 -0.143969 0.0198547 0.14748
273 1 3.06119 20.0027 3.00014 0.40391 -0.0741893 3.19324 5.61501 -3.95949 -0.439653 0.446188 -0.12367
166 1 7.16241 18.5363 1.39093 0.698547 0.150344 -2.49931 0.193577 -3.98767 -0.0838794 -0.157312 -0.279571
265 1 5.71847 17.1429 3.12741 -1.6126 -0.82668 -3.54668 0.475782 -3.9705 -0.599398 -0.0511513 -0.397244
266 1 7.25348 18.553 4.49914 1.95445 3.37989 -0.145865 5.11752 -3.89244 -0.721572 -0.246873 0.31874
267 1 8.63962 17.1234 2.92043 1.62128 1.24999 -1.44411 0.279356 -3.94685 -0.0901376 0.560987 0.415115
275 1 5.66392 19.9514 3.00684 0.0670137 -1.38317 -3.87798 5.22909 -3.96201 0.357197 -0.121349 0.519139
277 1 8.52362 20.0544 2.99543 0.898333 -0.0775842 -0.479706 0.263539 -3.98666 0.412773 -0.107514 0.256125
261 1 14.1769 17.1487 3.08161 3.22524 -0.724689 1.23685 0.363734 -4.00571 -0.0420936 0.386805 0.105852
168 1 9.9888 18.5753 1.43648 -3.61858 0.233632 -1.83299 0.225784 -3.92448 -0.220931 -0.173877 -0.110342
170 1 12.8038 18.6463 1.54918 0.900172 4.64776 -2.52583 0.353735 -4.00196 0.113841 -0.738196 -0.0143092
269 1 11.4148 17.1891 3.19421 1.22914 3.37173 -1.05524 0.428726 -3.96219 0.361699 0.463112 -0.919073
270 1 12.909 18.7314 4.59077 -1.75346 -1.91228 -0.862528 5.53529 -3.92636 -0.659188 -0.474007 0.165649
279 1 11.3598 20.0486 2.97218 2.0114 -4.45816 0.994583 0.283266 -3.90148 -0.416863 -0.258643 0.011397
172 1 1.47279 21.4257 1.43978 2.33301 -0.225112 2.95214 0.286625 -3.97571 0.526479 -0.128347 0.00427565
174 1 4.32705 21.4567 1.27691 -1.27528 -0.710527 -1.51037 0.292024 -3.97791 0.157246 0.0777853 -0.0839063
182 1 1.5749 24.1646 1.38919 -0.784188 -3.79054 -2.16947 0.0657713 -3.98857 -0.454685 0.336116 0.501354
184 1 4.3073 24.238 1.34385 -0.587332 0.565944 -1.32797 0.14745 -3.9764 0.522823 -0.496528 -0.274443
272 1 1.50093 21.4332 4.50533 -1.3891 0.701157 2.48604 0.395923 -4.03236 0.195549 -0.170123 0.268463
281 1 0.183488 22.7914 3.06365 -2.74019 0.616667 0.622568 0.169337 -3.93245 0.00482354 0.294304 -0.26567
283 1 2.92311 22.8102 3.08253 1.18139 2.06881 4.32688 0.192677 -3.90802 0.47199 -0.135123 -0.0825921
176 1 7.06694 21.3141 1.46177 -3.95137 -1.5893 -1.01736 0.401477 -3.99818 0.30525 0.112843 -0.246965
186 1 7.17879 24.1447 1.29113 2.78581 2.06017 1.88695 0.201345 -3.89317 0.387373 0.797196 -0.182991
285 1 5.85589 22.7635 2.86351 1.31531 1.02106 -0.50399 0.577713 -3.90342 -0.724273 0.611693 0.430117
287 1 8.6565 22.7436 2.91222 2.42 3.87829 -0.705154 5.01297 -4.05873 -0.413352 0.460168 0.203109
178 1 9.99102 21.4199 1.34886 -1.13098 -1.50552 3.15931 0.260562 -4.02449 0.657825 -0.136002 0.114674
180 1 12.8404 21.4228 1.48918 -0.471497 0.0061306 0.269058 0.316667 -4.08503 0.123313 -0.0388349 0.326727
188 1 10.0407 24.0693 1.23672 -1.30348 -2.27273 0.479064 4.91513 -3.87991 -0.0284532 1.13546 -0.315119
190 1 12.925 24.1389 1.35973 -1.55903 -2.12372 1.13416 5.68382 -3.86552 -0.653055 0.351989 0.526378
280 1 12.8739 21.3633 4.52022 1.61778 1.13426 1.57654 5.71249 -3.99421 -0.256215 0.0800989 0.153703
289 1 11.3072 22.8471 3.00112 -3.96248 4.07387 -0.259648 0.5018 -3.99058 0.340841 -0.319224 0.410481
290 1 12.8777 24.1232 4.57947 1.06046 -1.98762 3.24564 0.241667 -3.98751 -0.299298 0.299086 0.32957
192 1 1.54582 26.9795 1.42391 0.832332 -0.820942 0.130328 5.33654 -3.98944 0.000635872 -0.00321522 -0.119976
194 1 4.33343 27.1078 1.36331 -1.61671 -3.20912 1.28134 0.255405 -3.95062 -0.0755188 -0.346209 -0.414427
291 1 0.123486 25.6243 3.12533 -1.91934 -0.395923 -0.219087 0.414982 -3.9237 0.0695865 -0.0988567 -0.323752
292 1 1.58125 27.1181 4.49005 0.521729 -0.104332 -0.21211 5.42457 -4.01588 -0.166427 -0.410841 0.0896456
293 1 3.0799 25.6086 2.97155 2.80973 1.17343 -0.298043 5.95383 -3.90423 -0.614825 0.222471 0.336491
294 1 4.2495 27.1204 4.57159 -1.17778 2.9951 1.58236 0.256306 -3.95053 0.637635 -0.027026 -0.16349
196 1 7.3038 27.0489 1.51307 3.37805 -2.98627 4.17109 4.95321 -3.91309 -0.600058 -0.282936 -0.313207
295 1 5.73558 25.636 2.9495 2.43808 0.681994 -1.51506 5.26683 -3.9598 0.40138 -0.0934292 0.102169
296 1 7.17419 27.0665 4.4793 0.309675 6.50899 -1.89168 0.263587 -3.89834 -0.139673 0.47777 -0.193027
297 1 8.56397 25.5256 2.99862 -0.134748 1.31643 -3.31811 0.36164 -3.94305 1.04199 0.184976 -0.253361
209 1 11.3537 28.3011 3.06945 -0.393176 -1.47754 0.78913 6.00305 -3.83587 0.740502 0.655462 -0.327896
198 1 9.95313 27.0869 1.29779 0.689763 -0.698924 -1.31982 5.22899 -3.84049 0.417068 -0.085876 1.15128
200 1 13.0099 27.0067 1.35476 5.30296 -0.270392 0.651806 5.60889 -3.88479 -0.50645 0.344814 0.307362
299 1 11.357 25.6421 3.04362 0.613569 6.18239 1.53807 6.34433 -3.83984 0.484612 -0.0497223 0.185332
301 1 0.190771 0.330155 6.06483 0.5675 -0.168496 -2.46061 4.99955 -4.02 0.0604584 -0.23145 0.173864
302 1 1.52998 1.64637 7.941 -1.42736 -3.15682 0.972455 0.321745 -3.97216 -0.238149 -0.290096 -0.173567
303 1 2.87995 0.257353 6.22759 0.341516 -0.0404191 -2.60214 0.18988 -4.02714 -0.0595941 -0.0265823 0.201896
304 1 4.29008 1.6221 7.77315 -4.04083 -0.468429 4.02966 0.160432 -3.90483 0.453135 0.547 0.179263
311 1 0.149724 2.85167 6.21881 -1.74976 0.28104 0.763369 5.29097 -3.88821 -0.325956 0.930953 -0.531848
313 1 2.89377 2.99568 6.09892 0.148637 -0.416692 -0.495992 0.369683 -3.88952 -0.147323 0.0788268 0.544323
305 1 5.63949 0.272746 6.22302 -2.6762 0.601797 -1.53878 5.31484 -3.84618 0.746943 -0.0765036 -0.673166
306 1 7.16827 1.7968 7.8042 -0.497955 1.38302 -0.554626 5.90157 -3.88996 -0.189675 -1.03164 0.438017
307 1 8.54451 0.339894 6.26996 2.06573 -1.47317 -0.377265 0.336802 -3.97759 -0.195106 -0.715659 -0.0216664
315 1 5.88369 2.98404 6.13458 0.746495 3.22544 0.384377 5.37738 -3.97823 -0.677746 0.299007 -0.0665676
317 1 8.5575 3.091 6.13592 0.877774 1.33708 0.284955 0.0787465 -4.09635 -0.209111 0.187594 -0.13743
208 1 9.93587 1.5992 4.62309 -2.11946 3.54369 -4.60115 0.124676 -4.06409 0.460067 0.148923 -0.192953
210 1 12.7168 1.62492 4.65312 1.93469 -2.84729 3.21644 0.361168 -3.93481 0.165084 0.235072 -0.13172
308 1 9.85407 1.73124 7.75843 -3.32365 0.641461 0.348771 0.208906 -3.96363 0.680365 -0.195272 -0.000231329
309 1 11.427 0.271834 6.26775 2.261 -0.338001 1.59023 0.158728 -3.94821 0.0152948 0.0472507 -0.163674
310 1 12.8338 1.67333 7.78092 -2.12593 2.9352 -1.91821 0.175741 -3.94382 -0.497717 -0.293531 0.095143
319 1 11.2832 3.0542 6.2269 1.40137 -1.12676 -0.599603 0.110887 -3.99949 1.00497 0.0551808 -0.498727
212 1 1.5107 4.56417 4.62963 1.71349 1.1107 -0.37813 5.52785 -3.97988 0.0560195 -0.723327 -0.0531286
214 1 4.35594 4.34938 4.64881 -3.60792 0.888428 1.10906 5.03495 -3.94035 -0.242858 0.531605 -0.409441
222 1 1.54559 7.23945 4.60691 2.60978 -1.28947 -2.65909 0.159521 -3.99345 -0.339896 -0.159331 -0.350349
224 1 4.45542 7.31972 4.64491 2.28078 -2.16034 3.83898 0.307052 -3.93408 -0.890569 0.58641 -0.445112
312 1 1.51633 4.46751 7.73409 6.58074 -1.87872 -2.48992 0.253625 -3.96969 0.123809 -0.0615098 0.12717
314 1 4.38482 4.47065 7.85558 1.38421 -0.500902 1.94911 5.87281 -3.87744 0.0561833 -0.0330568 -0.273952
322 1 1.50912 7.24612 7.7195 2.77664 -2.04083 2.3912 0.113598 -3.94808 0.13651 -0.435699 -0.317684
323 1 3.05231 5.91185 6.14941 -1.31866 2.39502 -0.268551 0.267171 -3.95244 -0.470676 0.259921 0.414348
324 1 4.3708 7.29584 7.74873 1.4459 0.563605 -1.51929 0.131367 -3.97478 0.215945 -0.239873 0.0421708
226 1 7.22143 7.27669 4.60985 -1.92098 2.73055 -2.00716 0.112745 -4.00462 0.305397 0.100117 0.508542
316 1 7.10763 4.57462 7.78897 2.31643 -3.52172 -0.258836 0.36275 -3.99877 -0.332536 -0.896285 -0.136733
325 1 5.76431 5.8264 6.08851 -2.43851 2.57701 -2.10025 0.268595 -3.97204 0.270556 0.111785 0.100325
326 1 7.19795 7.24786 7.69761 -1.71798 -0.00966545 0.572563 0.271536 -4.02743 -0.441913 0.368233 -0.615665
327 1 8.55272 5.78657 6.30114 -1.12912 -0.410511 1.0442 0.554534 -3.95379 0.0124707 0.2541 -0.638761
228 1 9.92162 7.27115 4.69334 0.0778168 -0.255412 1.79302 0.269227 -3.97771 0.182039 0.111111 0.129652
321 1 14.1448 5.82456 6.19055 4.06995 0.134137 -0.309495 0.201262 -3.95398 0.165379 0.115748 -0.23122
318 1 9.98504 4.43593 7.7528 1.75132 -4.65897 3.2673 0.0899894 -3.9977 -0.0545959 0.463325 0.356335
320 1 12.7757 4.48205 7.75992 1.89733 -3.11783 2.82706 0.188763 -3.92861 0.371914 -0.58698 -0.122173
328 1 10.0129 7.28399 7.62894 2.65819 -0.927283 -2.4793 0.531675 -3.95711 0.341076 -0.0747213 0.665138
329 1 11.4291 5.87426 6.17248 1.9858 -1.38951 -0.786356 0.0757189 -3.97511 -0.00513832 -0.282533 -0.48178
330 1 12.8425 7.28945 7.78232 -1.97867 0.420953 -1.07444 0.0966337 -4.03507 -0.273848 0.216114 0.384253
232 1 1.56015 10.1641 4.62431 2.12226 0.0705619 -0.681687 0.220988 -4.01041 -0.491585 -0.221271 -0.311051