ITEM: TIMESTEP
135750
ITEM: NUMBER OF ATOMS
2000
ITEM: BOX BOUNDS pp pp pp
1.0838953229856951e-01 1.4221610467701321e+01
2.1677906459713903e-01 2.8443220935402643e+01
-3.3981813547675692e+00 6.0718181354767133e+01
ITEM: ATOMS id type x y z vx vy vz c_csym c_peratom fx fy fz
2 1 1.62332 1.66863 -1.78708 -0.282889 -3.25185 -0.636516 0.279341 -3.97647 -0.458523 -0.292257 -0.400693
4 1 4.35789 1.61575 -1.86491 0.990702 -5.33602 3.45801 0.249086 -3.97113 0.12741 -0.0995639 0.195647
11 1 0.115605 3.14255 -3.34639 0.617832 -0.194419 3.50607 0.241986 -3.90095 0.124139 -0.168731 -0.432473
101 1 0.126621 0.284403 -0.221607 -1.57173 1.46596 2.1275 0.153233 -4.00781 0.0402003 0.217056 -0.570338
103 1 2.85007 0.270771 -0.15732 0.287695 0.367304 -1.8153 0.24764 -3.86798 0.607944 0.196346 0.188513
111 1 0.168447 3.08626 -0.19307 -2.2925 0.592843 0.179022 0.13475 -3.97093 -0.241163 -0.340048 -0.381209
113 1 2.87763 3.13123 -0.133216 -1.71434 2.42111 -1.1208 5.86078 -3.93419 -0.0942586 -0.10236 0.177661
13 1 2.94284 3.10367 -3.37766 -0.0706192 -1.95523 0.774801 0.0756355 -3.89723 -0.38528 0.255748 0.076777
6 1 7.17995 1.58532 -1.79437 -1.53139 -1.81767 -2.43971 0.233569 -3.95114 -0.275362 0.610742 -0.00948635
17 1 8.63608 3.25517 -3.32354 -1.24355 -0.0988133 -0.860341 9.82108 -3.94721 -0.470179 -0.412785 0.00293786
105 1 5.90739 0.22905 -0.191505 0.812795 -1.48127 -4.16198 0.296234 -3.95293 -0.117277 -0.356783 -0.100126
115 1 5.79048 3.13764 -0.207402 -0.932742 0.818202 0.0439582 0.185231 -3.932 0.104234 -0.639276 -0.128723
117 1 8.60233 3.08029 -0.120735 0.475293 0.415756 -1.302 0.176932 -3.92193 -0.113188 0.402027 -0.70138
15 1 5.86915 3.09703 -3.33658 -1.1078 -3.23994 -0.243916 0.303076 -3.87109 -0.124257 0.422765 -0.374743
8 1 9.98472 1.71462 -1.91871 1.02028 2.64764 -1.65962 0.439862 -3.93665 -0.257323 -0.425237 0.693101
9 1 11.3244 0.287262 -3.28995 -0.628437 1.37052 0.162777 0.429164 -3.93135 0.980244 -0.273187 -0.234
10 1 12.8557 1.68831 -1.86434 -0.261261 2.58464 0.684826 0.145991 -3.91442 -0.0713645 0.42716 0.499285
109 1 11.3921 0.306018 -0.223755 4.17545 -4.26001 3.01885 0.173133 -3.93178 -0.118506 -0.476931 -0.390909
119 1 11.4562 3.11085 -0.28207 -0.877516 0.612354 1.13148 0.162827 -3.9771 -0.569113 -0.770858 0.0938753
12 1 1.52356 4.6359 -1.89728 1.18436 1.40208 1.05812 0.604828 -3.92417 0.282919 -0.198044 0.159047
14 1 4.34915 4.42365 -1.68686 -0.761965 1.11821 -1.53086 0.281409 -3.98679 0.0473537 0.140595 -0.506067
22 1 1.54026 7.32431 -1.86788 0.529166 1.27637 -0.648244 5.88995 -3.90428 -0.0515849 0.127646 0.610563
23 1 3.01689 5.92797 -3.3685 4.21453 0.286138 -0.65637 0.227475 -3.90649 -0.603954 0.136032 -0.196391
24 1 4.35552 7.36387 -1.79248 0.718611 1.41969 0.425215 0.113057 -3.93014 -0.0589178 0.258244 0.389941
121 1 0.132435 5.82793 -0.200548 -2.35864 3.10392 -0.471262 0.195028 -3.91844 0.107905 0.258165 -0.196107
123 1 3.01618 5.86763 -0.0982459 1.00139 1.8653 -1.24788 0.265292 -3.95408 -0.313373 0.1261 0.132701
16 1 7.14135 4.5226 -1.70962 0.603539 0.154603 0.133915 0.166113 -3.95837 0.0630493 -0.300559 -0.431688
25 1 5.70759 5.92495 -3.27151 -0.827089 1.1553 2.35682 5.11079 -3.9906 0.470889 -0.335001 -0.622164
26 1 7.1412 7.16975 -1.8457 -0.0337704 2.62343 0.778117 5.27725 -3.8659 0.222629 0.709324 0.426944
125 1 5.74127 5.95799 -0.154014 -0.136011 -2.75282 -0.154075 0.139363 -4.05434 0.12147 -0.0294495 -0.0344162
127 1 8.57446 5.88387 -0.299469 -1.51658 -3.67076 0.00771245 0.40626 -3.93125 0.161832 -0.0388238 0.604352
18 1 10.0587 4.47472 -1.7909 2.01504 1.15568 0.108705 0.221151 -3.95506 0.128446 0.359756 -0.0296639
20 1 12.7939 4.54238 -1.82704 -0.022531 3.00342 -1.17168 0.0651944 -4.00845 0.219899 0.148797 -0.0301817
28 1 10.1169 7.35391 -1.69507 1.08986 -1.21663 1.80841 0.422079 -3.93136 -0.510612 -0.410438 -0.0807879
29 1 11.4127 5.98723 -3.379 1.3822 1.47477 -0.555896 0.054569 -3.97946 -0.220259 -0.620512 0.0387213
30 1 12.8531 7.28188 -1.72559 0.362699 -0.519128 0.486825 0.139264 -3.98766 -0.0812406 0.43943 0.321767
129 1 11.3642 5.90889 -0.146337 -0.995542 1.01394 2.2528 0.114193 -4.00943 0.404675 -0.0925956 0.158487
32 1 1.48279 10.1923 -1.86517 2.66336 -1.18469 0.933482 0.247677 -4.03652 0.30685 -0.184383 0.13676
34 1 4.32744 10.195 -1.86418 -3.42019 -1.92301 1.41173 0.203887 -3.94697 -0.267759 -0.547487 0.0299258
43 1 2.92107 11.628 -3.37405 2.17426 0.782241 3.50485 0.124406 -4.02148 -0.330277 -0.262018 -0.417412
133 1 2.87707 8.77788 -0.16464 -1.44944 0.975575 0.710255 0.093611 -3.88361 0.372489 -0.0351152 -0.0993252
141 1 0.146359 11.6297 -0.28771 -2.20193 -7.04944 -1.51669 0.343448 -4.00189 -0.113796 0.0782377 0.539284
143 1 2.92416 11.521 -0.190043 -0.572232 1.1909 1.77002 0.169078 -4.01786 -0.355101 0.0694133 -0.340964
36 1 7.17897 10.1662 -1.74159 0.10168 3.47717 0.174941 0.174487 -3.87366 -0.191958 -0.0810548 0.15939
47 1 8.63625 11.4798 -3.28702 -1.46078 2.66256 0.234251 0.300895 -3.95568 -0.0452712 0.15775 -0.211976
135 1 5.71447 8.72482 -0.0825268 -0.880733 0.590278 -0.109653 5.7984 -3.91001 0.0953018 0.190602 -0.1293
137 1 8.61908 8.74613 -0.259798 -4.19951 1.4167 -2.48788 0.384393 -3.96997 -0.199369 -0.243772 -0.364189
145 1 5.78797 11.4174 -0.187248 0.913579 -3.10787 0.676852 5.81329 -3.92253 -0.437174 0.706089 0.282525
147 1 8.63173 11.5707 -0.0765416 -2.52053 -2.66134 -2.016 0.202508 -3.96109 -0.591007 0.276025 -1.04472
37 1 8.64539 8.6808 -3.25486 -0.410704 1.96136 0.795798 5.52298 -4.01016 -0.154778 0.554688 -0.122647
41 1 14.1834 11.5242 -3.29125 -1.35835 -5.95404 3.83557 0.261472 -3.97626 -0.0911222 0.0126736 -0.303776
131 1 14.189 8.78043 -0.060005 -1.59748 2.05417 3.03081 0.4352 -3.88303 0.843036 -0.422722 -0.180141
38 1 10.1092 10.2499 -1.6678 0.647054 3.02786 -2.05404 0.502101 -3.97242 -0.685175 -0.455094 0.388074
39 1 11.3428 8.78317 -3.34166 2.80774 -0.622395 -1.00191 0.224579 -3.96612 0.509961 -0.353301 0.334393
40 1 12.8549 10.1114 -1.64892 -1.75728 -0.634733 -0.267602 0.262338 -3.96614 -0.393301 -0.0121579 -0.0754762
139 1 11.4119 8.69776 -0.0963258 -0.425376 2.4171 -0.0430739 0.114211 -4.01281 -0.0654512 0.493331 -0.450697
149 1 11.4267 11.5446 -0.0953734 -0.904464 -0.906018 0.248794 0.183815 -3.97726 0.0523578 0.335634 -0.333602
49 1 11.351 11.4979 -3.31078 -3.94296 -1.72452 -3.57845 0.147683 -3.92498 0.368137 0.271832 -0.289047
42 1 1.60077 12.9976 -1.88302 -0.841826 -0.173751 0.753914 0.445677 -3.95369 -0.729107 -0.0328345 0.0222996
44 1 4.30049 12.9516 -1.89945 -1.17519 0.372824 -0.13007 6.17584 -4.02209 0.434353 0.125672 0.0724617
52 1 1.58776 15.7356 -1.63466 -0.585983 1.26946 1.71295 5.25673 -3.83033 -0.51288 0.00887758 -0.206523
54 1 4.38463 15.6552 -1.7961 0.269637 0.959657 1.9614 0.285086 -3.99473 -0.543624 0.235877 -0.105304
153 1 2.9946 14.2978 -0.175842 -3.03426 -0.361765 3.65674 0.168969 -3.91875 -0.150123 -0.176139 0.197767
46 1 7.13899 12.8477 -1.82271 -0.042375 -0.703018 -2.37022 5.32542 -3.92705 0.0219285 0.634047 0.0383445
56 1 7.08452 15.7726 -1.88168 0.19616 0.505449 -1.21975 0.271733 -4.00318 0.50577 -0.0527378 -0.14336
155 1 5.76502 14.3443 -0.237416 -0.699273 2.50818 -2.71856 0.105145 -3.95655 0.431522 -0.301779 0.101338
157 1 8.53251 14.4644 -0.146449 1.77519 1.9958 -4.01974 5.28055 -3.95491 -0.0948336 -0.0690176 -0.106447
57 1 8.49816 14.3386 -3.24605 5.27468 2.46447 0.151665 0.550008 -3.85067 -0.116648 -0.0517543 -0.5887
51 1 14.0057 14.3518 -3.39773 5.08997 3.62125 -2.07853 5.00222 -3.87012 0.906045 -0.0876266 -0.277889
151 1 14.2009 14.4155 -0.166758 -4.71089 2.01634 -0.85659 0.129586 -3.87186 -0.24194 -0.569774 0.301487
48 1 9.93985 13.0563 -1.76787 2.86016 2.34417 0.701272 5.29552 -3.94752 0.249601 -0.535733 0.125346
50 1 12.7181 12.9904 -1.7708 0.559624 -1.36974 -0.820506 0.187392 -3.95372 0.0572575 -0.350487 -0.182425
58 1 9.99316 15.7186 -1.78739 -3.3381 -1.51398 5.38263 0.182786 -3.99762 -0.116278 0.0288606 -0.193631
60 1 12.7967 15.7437 -1.7813 1.53771 1.90327 -4.70531 0.115257 -4.00057 -0.546259 -0.158756 0.626372
159 1 11.3491 14.3264 -0.112592 -0.265735 -1.65506 -3.98071 0.155977 -3.96163 0.0685408 -0.028914 -0.0933554
62 1 1.43944 18.5161 -1.74288 0.272627 0.831543 -0.200207 0.117988 -3.91615 0.112352 0.295666 -0.063785
64 1 4.38586 18.6552 -1.73837 1.24428 1.0664 2.86252 5.42953 -3.92048 -0.0862313 -0.878303 0.142406
163 1 2.94245 17.1558 -0.289159 0.341627 2.40032 0.506019 0.420895 -3.94287 0.416521 -0.166933 -0.0552848
171 1 0.141802 19.9783 -0.0723915 -0.0590841 -1.37942 4.27312 0.180849 -4.02262 -0.63457 -0.1122 -0.603094
173 1 2.89555 19.9823 -0.199574 0.785649 -1.23368 2.3689 0.151796 -3.99672 -0.719867 0.0566849 0.440771
66 1 7.24355 18.6165 -1.73921 2.75597 -4.35103 0.905848 4.91502 -4.01289 -0.405438 0.344402 0.187072
67 1 8.57677 17.1461 -3.37215 -4.30079 -3.56988 1.31798 0.0496129 -4.03975 -0.27069 -0.212219 0.0105241
165 1 5.78304 17.093 -0.247152 1.97311 1.99329 -0.167527 0.248112 -3.94545 -0.0782025 -0.0397859 -0.158603
167 1 8.56005 17.078 -0.304446 1.63712 1.01306 -0.622391 4.85765 -3.99235 0.169017 0.132433 0.665924
175 1 5.70632 20.007 -0.171713 -3.42076 -2.85137 2.01629 0.138307 -3.9549 0.234878 0.0685382 0.263714
177 1 8.58858 20.043 0.0489766 -1.05917 0.80188 -0.731301 1.06994 -3.924 0.00552975 -0.473932 -0.440062
75 1 5.71713 19.9361 -3.38805 -4.53949 -0.9021 2.29786 0.135858 -3.94767 -0.334302 0.270315 -0.590198
65 1 5.67248 17.193 -3.34712 -1.31158 -3.63153 -0.620776 0.344214 -3.98684 0.481416 -0.0966091 -0.262071
161 1 14.1852 17.2046 -0.0667753 -8.06951 -0.86164 0.0732044 0.227846 -4.02537 0.272699 -0.00191904 -0.243838
68 1 9.83757 18.5862 -1.71092 1.01621 0.95189 3.77626 5.49937 -3.98777 0.977272 0.317809 -0.275492
70 1 12.7582 18.5098 -1.75436 -2.75978 -0.241021 0.901339 0.160071 -3.87466 -0.0161817 0.612558 -0.0580451
169 1 11.4357 17.1907 -0.183036 -0.050047 0.778513 1.36961 0.113753 -3.93969 -0.24152 0.0134811 0.130752
179 1 11.4548 19.9395 -0.0913329 0.478562 4.61523 -0.247094 0.255835 -3.97866 0.0493945 0.133503 -0.0559965
69 1 11.3235 17.1806 -3.28466 2.51938 -0.439877 2.89062 0.230991 -3.94098 0.132055 -0.437455 -0.319482
71 1 14.189 20.001 -3.2775 -3.02828 1.71166 0.793185 0.316938 -3.84061 0.000233563 -0.898724 -0.210559
61 1 14.2026 17.0274 -3.32077 -2.79754 0.110739 5.17862 0.307683 -3.89962 0.0553375 0.334511 -0.146652
72 1 1.54936 21.3951 -1.8431 2.3338 -3.4761 -2.56089 0.181886 -4.02241 0.00933577 -0.243791 -0.469188
74 1 4.24289 21.3195 -1.70407 -0.775897 2.76848 -0.309503 0.387958 -4.08893 0.664766 -0.0914182 -0.367075
82 1 1.5098 24.075 -1.92082 -0.197856 1.54937 -4.05427 0.303728 -4.00128 -0.13631 0.443546 0.00621109
84 1 4.24694 24.1216 -1.76379 1.75243 2.83472 -4.12876 0.40639 -3.91897 0.544323 0.514878 -0.00948744
181 1 0.128659 22.763 -0.238194 -3.03311 -1.67311 -0.629939 0.0486204 -4.00427 0.0579244 -0.554136 -0.388206
183 1 2.89382 22.7594 -0.28363 0.572942 -1.11899 -0.365379 0.173571 -4.04834 -0.207424 0.041722 0.446852
76 1 7.14056 21.2635 -1.79185 -0.691281 0.193514 1.05787 5.50327 -3.83634 0.178849 0.814156 0.355392
86 1 7.25436 24.2668 -1.78904 -2.43118 3.29649 -1.15762 5.84916 -3.84725 0.000314806 -0.400814 -0.321806
185 1 5.72509 22.8979 -0.278206 3.67767 -2.14848 -3.35625 0.480768 -3.98474 -0.185314 -0.670015 0.156951
187 1 8.47118 22.692 -0.0949078 -0.732136 -0.532565 -1.73565 5.35154 -3.95322 -0.0850376 -0.0871811 -0.35817
78 1 9.92402 21.3232 -1.85121 -2.14879 -1.2859 1.20999 0.233914 -3.96126 -0.15475 0.513274 0.964228
80 1 12.7264 21.3466 -1.77104 -2.02506 0.894117 1.33119 0.0654948 -3.92087 0.699259 0.262777 -0.0744868
88 1 9.99398 24.1702 -1.74544 -1.34963 2.3224 -3.76156 0.214507 -3.9359 -0.0676995 0.198064 -0.0154116
90 1 12.8226 24.1983 -1.88659 -3.32555 -1.34099 0.789537 0.187489 -3.90059 -0.807502 0.0350539 0.11556
189 1 11.404 22.6532 -0.257525 1.1462 2.87937 3.03823 0.294485 -3.87572 0.0642273 0.464779 -0.219992
92 1 1.49183 27.0716 -1.80327 -1.55268 0.823337 -0.21304 0.0699338 -3.91326 -0.295072 -0.229923 0.133651
93 1 2.95679 25.6072 -3.37719 -2.98218 -1.24306 2.03838 0.178747 -3.92445 0.0691193 0.10678 -0.164659
94 1 4.31233 27.0701 -1.63441 -2.42482 -0.468398 -1.32983 0.720971 -3.91105 -0.0878107 0.154985 -0.491091
193 1 2.87926 25.4829 -0.267807 -1.0862 0.475835 1.41936 5.6684 -3.91909 0.106701 0.690199 0.124357
5 1 5.72241 28.2956 -3.31204 2.69086 -0.906142 0.0342517 5.19282 -3.95283 -0.128465 0.480327 -0.406995
107 1 8.62684 28.3911 -0.153244 1.62718 -2.83475 -3.52836 5.7435 -4.01787 -0.33639 0.619602 -0.250622
96 1 7.19496 27.0059 -1.8009 3.8854 -2.09663 -3.2721 0.0397789 -4.01677 -0.117336 -0.281811 0.365945
195 1 5.7699 25.6353 -0.251755 -1.7019 -1.17403 1.74296 6.00108 -3.87987 -0.15943 -0.13292 0.318957
197 1 8.65402 25.6862 -0.195328 -0.592902 -0.620959 0.00800132 0.328409 -4.01247 -0.672084 -0.437117 0.271665
7 1 8.51249 28.4072 -3.28951 0.305773 -1.36188 3.04787 0.35899 -3.94944 -0.1968 0.230029 -0.678761
191 1 14.1954 25.5315 -0.241896 -0.0885336 -4.4938 -0.48509 0.209329 -3.88294 0.227135 0.291634 -0.492271
98 1 9.85719 27.0277 -1.84819 2.60699 4.64685 0.62246 5.6131 -4.04831 0.99106 -0.267174 -0.397072
100 1 12.8111 27.1397 -1.78954 0.688756 2.41483 -3.36628 0.111814 -3.93317 -0.0995944 -0.436212 -0.248127
199 1 11.3947 25.7747 -0.193645 -1.77748 -0.753815 0.440887 0.588522 -3.88929 0.236043 -0.547425 -0.106564
99 1 11.3966 25.6653 -3.33158 -3.11862 -0.640777 0.494149 0.143497 -3.9681 -0.281133 -0.386613 -0.011672
102 1 1.43258 1.58866 1.43905 7.38627 -3.29026 1.48818 0.29945 -4.0163 0.405499 0.387656 0.358831
104 1 4.40471 1.70471 1.34318 -2.62904 -0.431866 -2.50035 0.236727 -3.92131 -0.799937 -0.103818 -0.283579
202 1 1.64591 1.56967 4.49397 2.02744 3.5456 -1.59179 4.74729 -4.02229 -0.644085 0.552852 0.216375
203 1 2.94499 0.259696 2.9681 -1.3304 -3.48688 0.0854903 0.13103 -4.03398 0.00415497 0.0596687 -0.529367
204 1 4.18458 1.68524 4.58023 -0.935437 1.48785 2.63114 4.68623 -3.97586 0.88566 -0.399513 -0.247435
213 1 2.88677 3.08084 2.9317 -2.28947 -0.845795 -1.07431 0.366196 -3.99218 0.234072 -0.294863 0.0399316
106 1 7.15632 1.63052 1.32717 0.736671 -1.16949 0.0239501 0.252997 -4.03526 0.244365 0.179208 0.337962
205 1 5.64874 0.299036 2.82527 2.33469 0.995414 0.291621 4.76181 -3.88443 0.441976 -0.199309 0.99268
206 1 7.2548 1.68985 4.53932 -1.46106 -1.55409 1.7364 4.92156 -3.92873 -0.246652 -0.292599 -0.0467562
207 1 8.58474 0.236208 3.04865 1.31666 3.04051 1.49325 0.158464 -3.94196 0.11701 0.0454008 -0.730376
215 1 5.78167 2.95842 3.10428 -1.49422 -2.50707 3.51511 0.540392 -3.93775 -0.588699 0.259016 -0.491361
217 1 8.60442 3.0921 2.9927 -1.80041 2.92479 -5.24384 0.123355 -4.005 -0.264047 -0.248414 0.266306
201 1 14.2143 0.277593 3.05251 -0.76465 1.66164 -3.30675 0.328666 -3.9815 -0.566086 -0.215959 0.296931
211 1 14.1953 3.09372 3.1097 0.131749 -3.47244 0.658656 0.286672 -3.91496 0.197548 -0.640185 0.24534
108 1 9.98023 1.81548 1.46196 1.78008 -0.0382443 0.481447 5.75259 -3.87532 0.360679 -0.945258 0.225957
110 1 12.7567 1.63776 1.36644 0.143622 0.261967 0.471904 0.165332 -3.86145 -0.00251779 -0.102921 0.115321
219 1 11.4042 3.08595 3.01899 2.96876 -3.6 -0.306264 0.0665294 -3.91722 0.113586 0.0820503 0.460453
112 1 1.47335 4.44722 1.52768 -2.08488 5.53109 1.88305 0.252487 -3.9289 0.0155137 0.435326 -0.307042
114 1 4.45714 4.53943 1.54083 0.408107 -1.46821 1.68028 5.3025 -3.99811 -0.379743 -0.593561 -0.288635
122 1 1.5387 7.19477 1.4929 -2.178 2.10286 -1.52883 0.268883 -3.85746 -0.44042 0.418109 -0.0201517
124 1 4.30599 7.3213 1.4689 -1.70609 -0.894295 0.386355 0.160941 -3.93087 0.216933 0.223669 0.282165
223 1 3.00176 5.86832 3.06077 -2.9209 -3.41332 -1.19244 0.120501 -3.98319 0.122738 0.0389604 0.430733
116 1 7.08446 4.43511 1.46935 -0.717838 -0.661302 1.69127 5.41288 -3.96658 0.580433 0.445534 0.284306
126 1 7.33953 7.39572 1.4471 1.37971 -3.46356 0.697126 5.6156 -3.86197 -0.393632 -0.354597 0.0615445
216 1 7.15048 4.45322 4.49547 0.663868 1.20315 1.59813 0.358527 -4.0234 -0.088215 0.592718 0.154909
225 1 5.7941 6.05956 2.97076 0.299468 -1.75276 -1.18853 5.69888 -3.92887 -0.264527 -0.278393 -0.00656428
227 1 8.61587 5.8789 2.97772 -0.532809 -0.371899 0.126652 0.140384 -3.94657 0.0885036 0.029069 0.263916
221 1 14.1524 5.86373 3.07564 0.796103 -1.93786 -0.0692733 0.1333 -3.97915 0.223489 0.0909725 0.00539845
118 1 10.0291 4.4796 1.43022 -2.00022 0.251406 -1.34662 0.107464 -4.02673 0.0514766 0.269938 -0.19227
120 1 12.7727 4.51546 1.36272 -2.93314 -0.0391201 0.674702 0.122095 -3.97861 0.372898 -0.105997 0.639532
128 1 10.0124 7.32217 1.37879 -2.7644 2.28321 3.1472 5.72469 -4.0127 -0.512472 -0.134743 -0.14914
130 1 12.7448 7.26336 1.38503 -1.8326 -3.86476 -3.53257 0.172243 -3.99227 0.573383 -0.290453 0.0163062
218 1 9.92391 4.44006 4.61429 2.54663 2.02038 1.45237 0.0897778 -4.0002 0.53401 0.166038 -0.0582191
220 1 12.7806 4.44772 4.60562 -0.879614 -1.25736 1.20844 0.0657712 -3.87183 0.0249801 -0.10218 0.550823
229 1 11.2652 5.91426 3.05429 0.58398 1.74186 -1.1864 5.34433 -3.99636 1.10433 0.0254467 -0.0856148
230 1 12.8446 7.35538 4.52657 2.31232 0.678649 1.21522 0.282186 -3.95375 -0.649576 -0.590302 0.514559
132 1 1.49806 10.2454 1.34305 0.926583 1.77752 2.20689 0.209093 -3.95292 0.155765 -0.351776 0.542769
134 1 4.33421 10.2257 1.48785 -1.95039 -2.01599 -1.69927 5.5215 -3.91924 0.205047 -0.396833 0.100102
233 1 2.86938 8.7146 3.07837 -0.683116 0.194601 5.31636 0.148852 -3.86621 0.287897 0.150388 -0.143418
234 1 4.30212 10.2221 4.6121 -0.621179 0.157015 -0.123602 5.572 -3.94019 0.71101 -0.233466 0.233632
241 1 0.149986 11.5192 2.97227 -2.41095 0.904273 -0.0212207 0.0958223 -3.99396 -0.381869 0.00127002 -0.20685
243 1 2.87755 11.525 2.91651 -0.234391 0.744033 0.670144 0.263158 -3.96636 0.18631 0.187513 0.389268
136 1 7.34978 10.1327 1.46394 0.629619 0.98562 1.20116 5.12427 -4.01986 -0.557032 0.050857 0.0798489
235 1 5.87066 8.81598 2.94183 0.465343 -1.43871 1.4062 0.400268 -3.95982 -0.514487 -0.43129 0.0444237
237 1 8.63235 8.75913 3.17761 2.56455 0.935182 0.542097 0.403084 -4.05662 -0.0879477 0.129056 -0.690758
245 1 5.87987 11.5851 3.01018 0.240801 -0.541356 -0.243051 0.42596 -3.95246 -0.688873 -0.116924 0.235208
247 1 8.6244 11.498 3.12571 0.432483 -3.51449 2.45946 0.207734 -4.03941 -0.239178 0.313891 0.261253
231 1 14.2058 8.74973 2.97118 -0.187028 1.52542 1.17023 0.0881354 -3.99382 0.481258 -0.129326 0.052114
138 1 9.92992 10.142 1.39304 -1.64946 -2.47072 4.24093 5.38345 -4.0473 0.709795 -0.140348 0.214218
140 1 12.8378 10.2224 1.40168 -3.06779 0.590986 0.953237 0.202566 -4.00654 -0.213975 -0.266619 0.486409
239 1 11.364 8.67474 2.97898 1.07823 -1.10089 5.00007 0.103499 -3.99212 0.527248 0.317715 -0.300174
240 1 12.788 10.0949 4.45244 0.473313 1.12475 -2.36237 5.23485 -3.90039 0.264292 0.437297 0.899438
249 1 11.3994 11.5636 3.1143 0.00818624 4.09037 -1.73351 0.268626 -3.98328 -0.460056 -0.00127242 -0.345583
142 1 1.52181 13.0509 1.51061 -1.28477 -4.17543 2.9049 0.374169 -3.98528 -0.194138 0.111856 -0.202478
144 1 4.29805 12.8216 1.33206 1.81958 -2.20134 0.0142737 5.0144 -3.93909 0.635168 0.846226 0.571548
152 1 1.51339 15.8576 1.48492 -0.669006 2.84052 -0.820189 5.50107 -4.05849 0.614486 -0.355097 -0.585265
154 1 4.25725 15.7179 1.39333 2.46855 -1.35996 -1.82568 0.31123 -3.94436 0.784481 0.275428 -0.103066
242 1 1.53992 12.9165 4.57927 0.280113 3.4737 -1.1283 0.128687 -4.00814 0.454244 0.281254 -0.314975
244 1 4.24982 12.7782 4.60787 2.14938 -0.0921022 -0.749942 5.50471 -3.94831 0.0729877 0.432602 -0.160847
251 1 0.128475 14.4623 3.07814 2.68999 -0.1114 0.508103 0.234275 -3.95226 -0.206349 -0.135312 0.144722
252 1 1.63436 15.7834 4.48521 -3.12021 0.366244 0.726554 4.74645 -3.91354 -0.120507 -0.276995 0.0998688
253 1 3.02926 14.3678 3.05104 0.643288 -2.70259 -2.00417 0.36777 -3.94831 -0.0319752 -0.164392 -0.166164
146 1 7.13468 12.9886 1.40876 1.04428 0.1527 -2.62964 0.13382 -3.83898 0.72873 -0.302687 0.0068632
156 1 7.1141 15.8395 1.43768 -5.45427 -4.00032 2.42238 0.302748 -3.9673 0.256983 0.242134 -0.0477501
255 1 5.79332 14.3612 2.96202 0.949383 2.2935 -3.25327 0.187102 -3.9447 -0.752799 0.0971304 0.0808169
256 1 7.19239 15.8423 4.50844 -0.861153 0.781607 -0.146585 0.403886 -4.00536 0.0906582 -0.249524 0.310318
257 1 8.60857 14.4287 3.06871 -2.00567 3.54744 2.76289 0.0764449 -3.93869 -0.210519 -0.702445 -0.639329
148 1 10.0789 12.8625 1.51328 2.53119 -0.204599 1.59625 5.35227 -3.9257 -0.514934 0.249472 0.11216
150 1 12.8144 12.9078 1.47691 0.842405 -1.04171 -0.584461 0.164964 -4.02046 0.421195 -0.0118128 -0.300709
158 1 10.0599 15.8093 1.49499 1.95172 -4.28031 -2.67566 0.269558 -3.90218 -0.159769 -0.195606 -0.272841
160 1 12.7974 15.8078 1.38821 2.05154 2.79304 -0.0709358 0.208919 -3.95067 -0.248443 -0.171749 0.220031
250 1 12.9049 12.9601 4.55701 1.45982 -1.9964 -1.75047 0.283279 -3.98815 0.0889656 -0.200846 0.385984
259 1 11.5154 14.2983 3.00851 2.36546 0.76793 -0.871017 0.2706 -3.99593 -0.760797 0.78221 -0.303693
162 1 1.61205 18.4318 1.42245 0.103087 0.473685 0.329909 5.22867 -3.95781 -0.0786177 0.758198 0.204893
164 1 4.41893 18.6151 1.3007 -0.211573 3.22505 -5.20284 0.36787 -3.96086 -0.17269 -0.388918 0.136101
262 1 1.64124 18.6991 4.59577 -1.57751 0.894061 -4.43727 5.23194 -3.9857 -0.937028 -0.519968 -0.0713328
263 1 3.02324 17.1738 2.99427 -2.37006 -0.133771 0.32695 0.276541 -4.00463 -0.000711637 0.397273 0.295757
271 1 0.239882 19.931 2.89643 -2.9132 -1.24747 -1.34561 0.624638 -3.9779 -0.378334 -0.17733 -0.159381
273 1 3.06119 20.0027 3.01143 0.40391 -0.0741893 3.19324 5.61292 -3.96024 -0.0193945 0.340385 -0.239678
166 1 7.16241 18.5363 1.40293 0.698547 0.150344 -2.49931 0.193437 -3.98855 0.193136 -0.138381 0.225017
265 1 5.71847 17.1429 3.13865 -1.6126 -0.82668 -3.54668 0.475434 -3.97126 -0.371935 -0.0243546 -0.217414
266 1 7.25348 18.553 4.50977 1.95445 3.37989 -0.145865 5.11586 -3.89314 -0.431818 -0.229778 0.228319
267 1 8.63962 17.1234 2.93176 1.62128 1.24999 -1.44411 0.279231 -3.94736 -0.0979496 0.372151 0.246172
275 1 5.66392 19.9514 3.01812 0.0670137 -1.38317 -3.87798 5.22711 -3.96272 0.63744 0.410543 0.12815
277 1 8.52362 20.0544 3.00673 0.898333 -0.0775842 -0.479706 0.263468 -3.98743 0.641355 -0.101349 -0.0432977
261 1 14.1769 17.1487 3.09287 3.22524 -0.724689 1.23685 0.363661 -4.00633 -0.0313299 0.298591 0.170984
168 1 9.9888 18.5753 1.44846 -3.61858 0.233632 -1.83299 0.225622 -3.92512 -0.0577192 -0.296053 -0.0249006
170 1 12.8038 18.6463 1.56111 0.900172 4.64776 -2.52583 0.353538 -4.00246 0.164371 -0.781304 -0.382933
269 1 11.4148 17.1891 3.20542 1.22914 3.37173 -1.05524 0.428428 -3.96274 0.433902 0.137933 -0.957667
270 1 12.909 18.7314 4.60136 -1.75346 -1.91228 -0.862528 5.53299 -3.9272 -0.576362 -0.0109066 0.314186
279 1 11.3598 20.0486 2.98348 2.0114 -4.45816 0.994583 0.283115 -3.90227 -0.245373 0.179259 -0.0132694
172 1 1.47279 21.4257 1.45175 2.33301 -0.225112 2.95214 0.286523 -3.9763 0.891237 0.133916 0.284671
174 1 4.32705 21.4567 1.28896 -1.27528 -0.710527 -1.51037 0.291868 -3.97863 0.178359 -0.379253 -0.272651
182 1 1.5749 24.1646 1.4012 -0.784188 -3.79054 -2.16947 0.0657639 -3.98932 -0.606211 -0.0530004 0.345207
184 1 4.3073 24.238 1.35587 -0.587332 0.565944 -1.32797 0.147424 -3.97694 0.125863 -0.464749 -0.473306
272 1 1.50093 21.4332 4.51596 -1.3891 0.701157 2.48604 0.395715 -4.03291 -0.142135 -0.387426 0.602404
281 1 0.183488 22.7914 3.07491 -2.74019 0.616667 0.622568 0.169222 -3.93283 -0.000749788 0.474125 -0.22463
283 1 2.92311 22.8102 3.09379 1.18139 2.06881 4.32688 0.19254 -3.9087 0.740105 -0.287475 -0.0806944
176 1 7.06694 21.3141 1.47374 -3.95137 -1.5893 -1.01736 0.4014 -3.99852 0.159129 0.132494 -0.364121
186 1 7.17879 24.1447 1.30318 2.78581 2.06017 1.88695 0.201263 -3.89368 -0.0602046 0.765869 0.28364
285 1 5.85589 22.7635 2.87487 1.31531 1.02106 -0.50399 0.577427 -3.90415 -0.490451 0.413295 0.857347
287 1 8.6565 22.7436 2.92355 2.42 3.87829 -0.705154 5.0112 -4.05959 -0.169818 0.347755 0.00854173
178 1 9.99102 21.4199 1.36088 -1.13098 -1.50552 3.15931 0.260424 -4.0248 0.331549 -0.0753501 0.0884187
180 1 12.8404 21.4228 1.50114 -0.471497 0.0061306 0.269058 0.316489 -4.08573 0.103543 0.288673 0.431388
188 1 10.0407 24.0693 1.24879 -1.30348 -2.27273 0.479064 4.91338 -3.8805 -0.379584 0.796859 -0.299159
190 1 12.925 24.1389 1.37175 -1.55903 -2.12372 1.13416 5.68185 -3.86625 -0.396101 0.39758 0.420796
280 1 12.8739 21.3633 4.53084 1.61778 1.13426 1.57654 5.71071 -3.99513 0.190546 0.0108746 -0.117744
289 1 11.3072 22.8471 3.01241 -3.96248 4.07387 -0.259648 0.501707 -3.99123 0.343337 -0.0255664 0.463547
290 1 12.8777 24.1232 4.59007 1.06046 -1.98762 3.24564 0.241631 -3.98811 -0.0522742 0.0169102 0.171185
192 1 1.54582 26.9795 1.4359 0.832332 -0.820942 0.130328 5.33458 -3.99038 -0.196982 0.311703 -0.229211
194 1 4.33343 27.1078 1.37532 -1.61671 -3.20912 1.28134 0.255367 -3.95127 0.0377845 -0.523071 -0.420064
291 1 0.123486 25.6243 3.13656 -1.91934 -0.395923 -0.219087 0.414707 -3.92427 0.288933 -0.251061 -0.160443
292 1 1.58125 27.1181 4.50069 0.521729 -0.104332 -0.21211 5.4228 -4.01653 0.0671456 -0.699677 0.280352
293 1 3.0799 25.6086 2.98285 2.80973 1.17343 -0.298043 5.95164 -3.90478 -0.739446 -0.176127 0.349511
294 1 4.2495 27.1204 4.58219 -1.17778 2.9951 1.58236 0.256271 -3.95104 0.539597 0.207397 -0.484226
196 1 7.3038 27.0489 1.52501 3.37805 -2.98627 4.17109 4.95192 -3.9137 -1.04624 -0.291855 -0.427945
295 1 5.73558 25.636 2.96082 2.43808 0.681994 -1.51506 5.265 -3.96053 0.320613 0.0584616 0.182969
296 1 7.17419 27.0665 4.48994 0.309675 6.50899 -1.89168 0.26345 -3.89882 -0.317705 0.530267 -0.0406137
297 1 8.56397 25.5256 3.00991 -0.134748 1.31643 -3.31811 0.361524 -3.94397 1.07587 0.0242602 0.14206
209 1 11.3537 28.3011 3.08071 -0.393176 -1.47754 0.78913 6.00084 -3.8367 0.549749 0.359055 -0.841603
198 1 9.95313 27.0869 1.30983 0.689763 -0.698924 -1.31982 5.22735 -3.84098 0.214959 -0.359627 0.906437
200 1 13.0099 27.0067 1.36677 5.30296 -0.270392 0.651806 5.6069 -3.88555 -0.688642 -0.0238736 0.146339
299 1 11.357 25.6421 3.05489 0.613569 6.18239 1.53807 6.34211 -3.84082 0.382809 -0.355218 -0.167926
301 1 0.190771 0.330155 6.07477 0.5675 -0.168496 -2.46061 4.99794 -4.02069 -0.226618 -0.20825 0.21437
302 1 1.52998 1.64637 7.95012 -1.42736 -3.15682 0.972455 0.321502 -3.97287 0.137006 -0.499293 -0.0712049
303 1 2.87995 0.257353 6.23746 0.341516 -0.0404191 -2.60214 0.189828 -4.0276 -0.179191 -0.442043 0.10566
304 1 4.29008 1.6221 7.78234 -4.04083 -0.468429 4.02966 0.160373 -3.90554 0.112789 0.729256 0.296293
311 1 0.149724 2.85167 6.22868 -1.74976 0.28104 0.763369 5.2893 -3.88896 0.126102 1.01119 -0.260297
313 1 2.89377 2.99568 6.10885 0.148637 -0.416692 -0.495992 0.369484 -3.89016 -0.264727 -0.00646709 0.54112
305 1 5.63949 0.272746 6.2329 -2.6762 0.601797 -1.53878 5.31274 -3.84691 0.726033 0.322724 -0.65235
306 1 7.16827 1.7968 7.81338 -0.497955 1.38302 -0.554626 5.89925 -3.89031 -0.627028 -0.910054 0.344851
307 1 8.54451 0.339894 6.27981 2.06573 -1.47317 -0.377265 0.336663 -3.97825 -0.139049 -0.921478 0.164594
315 1 5.88369 2.98404 6.14449 0.746495 3.22544 0.384377 5.3752 -3.97874 -0.655097 0.272865 -0.134081
317 1 8.5575 3.091 6.14583 0.877774 1.33708 0.284955 0.0787121 -4.09686 -0.309407 0.108344 0.0723997
208 1 9.93587 1.5992 4.63367 -2.11946 3.54369 -4.60115 0.124673 -4.06464 0.523664 0.369141 -0.203141
210 1 12.7168 1.62492 4.66368 1.93469 -2.84729 3.21644 0.361115 -3.93536 -0.264205 -0.204735 -0.534249
308 1 9.85407 1.73124 7.76763 -3.32365 0.641461 0.348771 0.208879 -3.96413 0.273055 -0.162692 -0.273787
309 1 11.427 0.271834 6.2776 2.261 -0.338001 1.59023 0.158628 -3.94882 -0.255741 0.0942129 -0.263406
310 1 12.8338 1.67333 7.7901 -2.12593 2.9352 -1.91821 0.175678 -3.94434 -0.485256 -0.555278 0.323516
319 1 11.2832 3.0542 6.23677 1.40137 -1.12676 -0.599603 0.110867 -4.00002 0.821378 0.114757 -0.229508
212 1 1.5107 4.56417 4.6402 1.71349 1.1107 -0.37813 5.52598 -3.98059 0.100357 -0.304475 0.21348
214 1 4.35594 4.34938 4.65938 -3.60792 0.888428 1.10906 5.03324 -3.94108 0.00721363 0.78255 -0.629633
222 1 1.54559 7.23945 4.6175 2.60978 -1.28947 -2.65909 0.159498 -3.99413 -0.534824 0.127626 -0.140445
224 1 4.45542 7.31972 4.65548 2.28078 -2.16034 3.83898 0.306966 -3.93474 -0.947871 0.202736 -0.557201
312 1 1.51633 4.46751 7.74329 6.58074 -1.87872 -2.48992 0.253555 -3.97044 0.358533 -0.375706 0.197604
314 1 4.38482 4.47065 7.86474 1.38421 -0.500902 1.94911 5.87049 -3.87829 0.155366 -0.406856 -0.0907866
322 1 1.50912 7.24612 7.72871 2.77664 -2.04083 2.3912 0.113571 -3.94886 -0.0525808 -0.124984 -0.310195
323 1 3.05231 5.91185 6.15932 -1.31866 2.39502 -0.268551 0.267132 -3.95299 -0.41297 -0.248395 0.0479173
324 1 4.3708 7.29584 7.75793 1.4459 0.563605 -1.51929 0.13131 -3.97541 -0.256973 -0.397825 -0.333841
226 1 7.22143 7.27669 4.62043 -1.92098 2.73055 -2.00716 0.112729 -4.00535 0.344584 0.154786 0.301166
316 1 7.10763 4.57462 7.79816 2.31643 -3.52172 -0.258836 0.362694 -3.99929 -0.025401 -0.952422 0.00335161
325 1 5.76431 5.8264 6.09844 -2.43851 2.57701 -2.10025 0.268436 -3.97253 -0.00644137 0.0728306 0.107991
326 1 7.19795 7.24786 7.70683 -1.71798 -0.00966545 0.572563 0.271404 -4.02793 -0.635615 0.485442 -0.699178
327 1 8.55272 5.78657 6.31098 -1.12912 -0.410511 1.0442 0.554181 -3.9544 -0.0669809 0.35334 -0.645785
228 1 9.92162 7.27115 4.70388 0.0778168 -0.255412 1.79302 0.269137 -3.9784 0.0482702 -0.234587 0.506692
321 1 14.1448 5.82456 6.20044 4.06995 0.134137 -0.309495 0.201242 -3.95455 0.147682 0.113617 -0.307996
318 1 9.98504 4.43593 7.762 1.75132 -4.65897 3.2673 0.0899689 -3.99813 -0.142213 0.582648 0.533556
320 1 12.7757 4.48205 7.76911 1.89733 -3.11783 2.82706 0.188744 -3.92915 0.03269 -0.449411 0.0273172
328 1 10.0129 7.28399 7.6382 2.65819 -0.927283 -2.4793 0.53123 -3.95774 0.156944 0.0650212 0.583813
329 1 11.4291 5.87426 6.18237 1.9858 -1.38951 -0.786356 0.0756891 -3.9757 -0.043308 -0.30118 -0.655406
330 1 12.8425 7.28945 7.79151 -1.97867 0.420953 -1.07444 0.0966073 -4.03567 -0.0703835 0.014546 -0.122076
232 1 1.56015 10.1641 4.63489 2.12226 0.0705619 -0.681687 0.220904 -4.01094 -0.233422 -0.216014 -0.0835551