ITEM: TIMESTEP
113250
ITEM: NUMBER OF ATOMS
2000
ITEM: BOX BOUNDS pp pp pp
1.0838953229856951e-01 1.4221610467701321e+01
2.1677906459713903e-01 2.8443220935402643e+01
-2.7630864126744457e+00 6.0083086412674007e+01
ITEM: ATOMS id type x y z vx vy vz c_csym c_peratom fx fy fz
2 1 1.62332 1.66863 -1.1839 -0.282889 -3.25185 -0.636516 0.278909 -4.00342 -0.499613 0.199002 -0.2048
4 1 4.35789 1.61575 -1.26019 0.990702 -5.33602 3.45801 0.242477 -4.01037 0.237201 0.380545 0.158341
11 1 0.115605 3.14255 -2.71232 0.617832 -0.194419 3.50607 0.233666 -3.93708 -0.31829 0.0502029 -0.296982
101 1 0.126621 0.284403 0.350558 -1.57173 1.46596 2.1275 0.152865 -4.03087 -0.148698 0.181918 -0.51793
103 1 2.85007 0.270771 0.413571 0.287695 0.367304 -1.8153 0.245369 -3.89906 0.542457 0.325272 0.0329441
111 1 0.168447 3.08626 0.37853 -2.2925 0.592843 0.179022 0.133775 -4.00717 -0.237705 -0.123291 0.0931082
113 1 2.87763 3.13123 0.437197 -1.71434 2.42111 -1.1208 5.77878 -3.96726 0.0897371 -0.252826 0.287312
13 1 2.94284 3.10367 -2.74298 -0.0706192 -1.95523 0.774801 0.0747664 -3.92087 -0.0324666 0.19987 -0.0102935
6 1 7.17995 1.58532 -1.19105 -1.53139 -1.81767 -2.43971 0.231687 -3.98356 0.230203 0.759415 -0.256794
17 1 8.63608 3.25517 -2.68992 -1.24355 -0.0988133 -0.860341 5.18557 -3.97694 -0.466578 -0.673921 -0.275934
105 1 5.90739 0.22905 0.380064 0.812795 -1.48127 -4.16198 0.295666 -3.98388 -0.62087 0.0736775 0.352176
115 1 5.79048 3.13764 0.364481 -0.932742 0.818202 0.0439582 0.183986 -3.95965 -0.36694 -0.281895 -0.00640874
117 1 8.60233 3.08029 0.449432 0.475293 0.415756 -1.302 0.172707 -3.95304 -0.201736 0.104494 -0.617619
15 1 5.86915 3.09703 -2.70271 -1.1078 -3.23994 -0.243916 0.299793 -3.90057 -0.110494 0.323642 -0.294934
8 1 9.98472 1.71462 -1.31292 1.02028 2.64764 -1.65962 0.425027 -3.96366 -0.200391 -0.0260126 0.669904
9 1 11.3244 0.287262 -2.657 -0.628437 1.37052 0.162777 0.418702 -3.95908 0.868546 -0.180615 -0.302986
10 1 12.8557 1.68831 -1.25963 -0.261261 2.58464 0.684826 0.142541 -3.93974 -0.399622 0.447467 0.0796689
109 1 11.3921 0.306018 0.348452 4.17545 -4.26001 3.01885 0.171646 -3.96402 -0.0901514 -0.499245 -0.5138
119 1 11.4562 3.11085 0.291293 -0.877516 0.612354 1.13148 0.159842 -4.0085 -0.44509 -0.356192 -0.283005
12 1 1.52356 4.6359 -1.29192 1.18436 1.40208 1.05812 0.594134 -3.95336 0.00506308 -0.583395 0.0327363
14 1 4.34915 4.42365 -1.08566 -0.761965 1.11821 -1.53086 0.278642 -4.01467 0.0430831 0.49935 -0.596583
22 1 1.54026 7.32431 -1.2631 0.529166 1.27637 -0.648244 5.7899 -3.93283 -0.272574 -0.268647 0.325268
23 1 3.01689 5.92797 -2.734 4.21453 0.286138 -0.65637 0.226116 -3.93422 -0.529972 -0.0780768 -0.527654
24 1 4.35552 7.36387 -1.1892 0.718611 1.41969 0.425215 0.111284 -3.95331 -0.0912664 0.388656 0.109645
121 1 0.132435 5.82793 0.3712 -2.35864 3.10392 -0.471262 0.192323 -3.94526 0.38978 0.553405 0.0269433
123 1 3.01618 5.86763 0.471475 1.00139 1.8653 -1.24788 0.262331 -3.99508 -0.384941 -0.161999 -0.263155
16 1 7.14135 4.5226 -1.10798 0.603539 0.154603 0.133915 0.162599 -3.97875 0.174436 -0.485605 -0.268892
25 1 5.70759 5.92495 -2.63892 -0.827089 1.1553 2.35682 5.03791 -4.02706 0.0868734 -0.424242 -0.685714
26 1 7.1412 7.16975 -1.24136 -0.0337704 2.62343 0.778117 5.19211 -3.88456 -0.143496 0.765865 0.489448
125 1 5.74127 5.95799 0.416811 -0.136011 -2.75282 -0.154075 0.138994 -4.08679 -0.212252 0.184654 0.361341
127 1 8.57446 5.88387 0.274239 -1.51658 -3.67076 0.00771245 0.394102 -3.97048 0.410624 -0.0601737 0.608194
18 1 10.0587 4.47472 -1.18765 2.01504 1.15568 0.108705 0.218386 -3.97785 0.115286 0.604367 0.334304
20 1 12.7939 4.54238 -1.22307 -0.022531 3.00342 -1.17168 0.0636987 -4.03097 0.298173 0.390369 0.0459123
28 1 10.1169 7.35391 -1.09372 1.08986 -1.21663 1.80841 0.416667 -3.95379 -0.500224 -0.273566 0.0965954
29 1 11.4127 5.98723 -2.74429 1.3822 1.47477 -0.555896 0.0543111 -4.01083 -0.398389 -0.108705 -0.234539
30 1 12.8531 7.28188 -1.12363 0.362699 -0.519128 0.486825 0.138164 -4.01967 -0.407081 0.469714 0.451719
129 1 11.3642 5.90889 0.424336 -0.995542 1.01394 2.2528 0.112679 -4.02852 0.503117 -0.000146486 -0.05556
32 1 1.48279 10.1923 -1.26044 2.66336 -1.18469 0.933482 0.240631 -4.06468 0.499003 -0.111264 0.0660051
34 1 4.32744 10.195 -1.25948 -3.42019 -1.92301 1.41173 0.199378 -3.97885 -0.228332 -0.400592 0.387076
43 1 2.92107 11.628 -2.73943 2.17426 0.782241 3.50485 0.121781 -4.0389 0.036838 -0.611611 -0.0329658
133 1 2.87707 8.77788 0.406397 -1.44944 0.975575 0.710255 0.0926984 -3.92502 0.438446 0.156605 0.126151
141 1 0.146359 11.6297 0.285764 -2.20193 -7.04944 -1.51669 0.333375 -4.03363 -0.110183 -0.0588051 0.20895
143 1 2.92416 11.521 0.381496 -0.572232 1.1909 1.77002 0.166903 -4.04437 -0.201126 0.354174 -0.449749
36 1 7.17897 10.1662 -1.13932 0.10168 3.47717 0.174941 0.171588 -3.90085 -0.0112638 -0.265383 -0.192402
47 1 8.63625 11.4798 -2.65413 -1.46078 2.66256 0.234251 0.295103 -3.98379 -0.0540428 -0.203135 -0.195553
135 1 5.71447 8.72482 0.486883 -0.880733 0.590278 -0.109653 5.71231 -3.94993 0.27558 0.110532 -0.14131
137 1 8.61908 8.74613 0.313123 -4.19951 1.4167 -2.48788 0.376484 -4.00286 -0.498094 -0.272582 -0.218304
145 1 5.78797 11.4174 0.384236 0.913579 -3.10787 0.676852 5.721 -3.95547 -0.160216 0.362374 0.439843
147 1 8.63173 11.5707 0.492749 -2.52053 -2.66134 -2.016 0.197952 -3.98908 -0.340852 0.334251 -0.543793
37 1 8.64539 8.6808 -2.6226 -0.410704 1.96136 0.795798 0.381174 -4.04064 -0.198535 0.31174 -0.0846889
41 1 14.1834 11.5242 -2.65827 -1.35835 -5.95404 3.83557 0.255507 -3.99611 -0.126631 0.441227 -0.309404
131 1 14.189 8.78043 0.508958 -1.59748 2.05417 3.03081 0.422658 -3.9131 0.341258 -0.444411 -0.371735
38 1 10.1092 10.2499 -1.06698 0.647054 3.02786 -2.05404 0.499569 -3.99765 -0.272417 -0.467517 0.411689
39 1 11.3428 8.78317 -2.70769 2.80774 -0.622395 -1.00191 0.224235 -3.995 0.684805 -0.356987 -0.0777515
40 1 12.8549 10.1114 -1.04848 -1.75728 -0.634733 -0.267602 0.255711 -3.99714 -0.348453 0.143105 -0.0212337
139 1 11.4119 8.69776 0.473357 -0.425376 2.4171 -0.0430739 0.112491 -4.03203 -0.0271163 0.671664 -0.523031
149 1 11.4267 11.5446 0.474291 -0.904464 -0.906018 0.248794 0.181117 -4.00046 0.120657 0.515067 -0.256577
49 1 11.351 11.4979 -2.67741 -3.94296 -1.72452 -3.57845 0.14644 -3.95188 0.179407 -0.00608479 -0.214776
42 1 1.60077 12.9976 -1.27794 -0.841826 -0.173751 0.753914 0.438797 -3.98479 -0.293175 0.280789 0.0616765
44 1 4.30049 12.9516 -1.29404 -1.17519 0.372824 -0.13007 6.07899 -4.05362 0.245434 0.23074 -0.0432341
52 1 1.58776 15.7356 -1.0345 -0.585983 1.26946 1.71295 5.19665 -3.86981 -0.757918 0.303498 -0.448957
54 1 4.38463 15.6552 -1.19274 0.269637 0.959657 1.9614 0.280307 -4.0172 -0.513871 -0.0297473 0.0517597
153 1 2.9946 14.2978 0.395416 -3.03426 -0.361765 3.65674 0.1678 -3.94056 -0.509617 -0.041372 0.319335
46 1 7.13899 12.8477 -1.21883 -0.042375 -0.703018 -2.37022 5.25238 -3.95306 0.0335672 0.475743 0.167541
56 1 7.08452 15.7726 -1.27663 0.19616 0.505449 -1.21975 0.264821 -4.02296 0.0237712 -0.0737951 -0.275535
155 1 5.76502 14.3443 0.335062 -0.699273 2.50818 -2.71856 0.104537 -3.98631 0.278328 0.0267128 0.0521825
157 1 8.53251 14.4644 0.424227 1.77519 1.9958 -4.01974 5.20358 -3.99218 -0.160531 -0.54472 0.361838
57 1 8.49816 14.3386 -2.61397 5.27468 2.46447 0.151665 0.532332 -3.88518 0.00672247 -0.169777 -0.843386
51 1 14.0057 14.3518 -2.76265 5.08997 3.62125 -2.07853 4.92076 -3.89984 1.10633 -0.533075 -0.349553
151 1 14.2009 14.4155 0.40432 -4.71089 2.01634 -0.85659 0.12711 -3.90427 0.150964 -0.234477 0.182977
48 1 9.93985 13.0563 -1.16508 2.86016 2.34417 0.701272 5.20164 -3.97511 0.305205 -0.677523 0.266104
50 1 12.7181 12.9904 -1.16794 0.559624 -1.36974 -0.820506 0.184151 -3.98281 -0.112026 -0.415827 0.103889
58 1 9.99316 15.7186 -1.18421 -3.3381 -1.51398 5.38263 0.17888 -4.01731 0.151958 0.287642 -0.253753
60 1 12.7967 15.7437 -1.17823 1.53771 1.90327 -4.70531 0.114104 -4.01552 -0.0639587 0.156431 0.282092
159 1 11.3491 14.3264 0.457414 -0.265735 -1.65506 -3.98071 0.154583 -3.98885 0.197342 0.189722 -0.150117
62 1 1.43944 18.5161 -1.14058 0.272627 0.831543 -0.200207 0.117325 -3.9456 0.350918 0.33522 -0.322393
64 1 4.38586 18.6552 -1.13616 1.24428 1.0664 2.86252 5.33531 -3.94612 -0.480749 -0.779983 0.304103
163 1 2.94245 17.1558 0.284344 0.341627 2.40032 0.506019 0.410716 -3.96725 0.42216 0.313906 0.369025
171 1 0.141802 19.9783 0.496817 -0.0590841 -1.37942 4.27312 0.177136 -4.05188 -0.25225 0.152128 -0.448424
173 1 2.89555 19.9823 0.372155 0.785649 -1.23368 2.3689 0.149835 -4.02458 -0.85292 0.0130382 0.0905273
66 1 7.24355 18.6165 -1.13698 2.75597 -4.35103 0.905848 5.62353 -4.05139 -0.746236 0.0501709 0.335361
67 1 8.57677 17.1461 -2.73757 -4.30079 -3.56988 1.31798 0.0495925 -4.06707 0.057257 -0.213402 0.031418
165 1 5.78304 17.093 0.325519 1.97311 1.99329 -0.167527 0.245081 -3.96886 0.0122583 0.451597 -0.133451
167 1 8.56005 17.078 0.26936 1.63712 1.01306 -0.622391 4.78489 -4.02143 0.356015 -0.195584 0.575796
175 1 5.70632 20.007 0.399463 -3.42076 -2.85137 2.01629 0.13669 -3.97725 0.622128 0.0154304 -0.169853
177 1 8.58858 20.043 0.615781 -1.05917 0.80188 -0.731301 1.03729 -3.95033 -0.272118 -0.134882 -0.600457
75 1 5.71713 19.9361 -2.75315 -4.53949 -0.9021 2.29786 0.133497 -3.97845 0.0597254 0.155776 -0.395925
65 1 5.67248 17.193 -2.71303 -1.31158 -3.63153 -0.620776 0.339824 -4.01954 0.304963 -0.229322 0.298986
161 1 14.1852 17.2046 0.502322 -8.06951 -0.86164 0.0732044 0.223072 -4.0517 0.0917191 0.0613271 -0.655161
68 1 9.83757 18.5862 -1.10925 1.01621 0.95189 3.77626 5.40337 -4.02187 0.557725 0.369706 -0.120256
70 1 12.7582 18.5098 -1.15183 -2.75978 -0.241021 0.901339 0.15869 -3.90385 0.0174316 0.359953 -0.150955
169 1 11.4357 17.1907 0.388364 -0.050047 0.778513 1.36961 0.112422 -3.96818 -0.551942 -0.00243139 0.0657643
179 1 11.4548 19.9395 0.478251 0.478562 4.61523 -0.247094 0.252842 -4.00728 0.0604159 0.373428 -0.528291
69 1 11.3235 17.1806 -2.65181 2.51938 -0.439877 2.89062 0.22503 -3.97241 0.29548 -0.43993 -0.148062
71 1 14.189 20.001 -2.6448 -3.02828 1.71166 0.793185 0.311193 -3.86708 -0.141611 -0.522108 -0.0707055
61 1 14.2026 17.0274 -2.68721 -2.79754 0.110739 5.17862 0.302569 -3.93089 0.156382 0.232842 0.0296594
72 1 1.54936 21.3951 -1.23881 2.3338 -3.4761 -2.56089 0.179257 -4.05046 -0.315681 0.0252381 -0.480182
74 1 4.24289 21.3195 -1.10253 -0.775897 2.76848 -0.309503 0.379159 -4.11319 0.571662 -0.211516 -0.345338
82 1 1.5098 24.075 -1.31499 -0.197856 1.54937 -4.05427 0.298916 -4.03008 -0.0977787 0.436616 0.103431
84 1 4.24694 24.1216 -1.16107 1.75243 2.83472 -4.12876 0.401389 -3.94409 0.447872 0.417676 -0.359096
181 1 0.128659 22.763 0.334299 -3.03311 -1.67311 -0.629939 0.04798 -4.02773 0.0560063 -0.582085 -0.43887
183 1 2.89382 22.7594 0.289764 0.572942 -1.11899 -0.365379 0.167859 -4.063 0.165334 0.576776 0.107719
76 1 7.14056 21.2635 -1.18858 -0.691281 0.193514 1.05787 5.40356 -3.87383 0.223331 0.847108 0.125022
86 1 7.25436 24.2668 -1.18582 -2.43118 3.29649 -1.15762 5.73587 -3.87937 0.0331932 -0.314093 -0.0951048
185 1 5.72509 22.8979 0.29508 3.67767 -2.14848 -3.35625 0.476342 -4.00796 0.401692 -0.558062 0.00722391
187 1 8.47118 22.692 0.474747 -0.732136 -0.532565 -1.73565 5.24511 -3.9849 -0.0414922 -0.104891 -0.239379
78 1 9.92402 21.3232 -1.24676 -2.14879 -1.2859 1.20999 0.228636 -3.99533 -0.0894227 0.547083 0.947668
80 1 12.7264 21.3466 -1.16818 -2.02506 0.894117 1.33119 0.064947 -3.9485 0.387579 0.164715 -0.189335
88 1 9.99398 24.1702 -1.14309 -1.34963 2.3224 -3.76156 0.209472 -3.97995 -0.390888 -0.163656 0.0594662
90 1 12.8226 24.1983 -1.28144 -3.32555 -1.34099 0.789537 0.184615 -3.93665 -0.891462 -0.127714 0.419561
189 1 11.404 22.6532 0.315352 1.1462 2.87937 3.03823 0.291553 -3.90619 0.557103 0.201135 0.277215
92 1 1.49183 27.0716 -1.19977 -1.55268 0.823337 -0.21304 0.0695051 -3.94829 -0.318698 -0.527653 0.0542594
93 1 2.95679 25.6072 -2.74252 -2.98218 -1.24306 2.03838 0.174706 -3.96545 -0.155622 0.294855 -0.244669
94 1 4.31233 27.0701 -1.03426 -2.42482 -0.468398 -1.32983 0.700744 -3.93846 -0.257609 -0.228712 -0.408767
193 1 2.87926 25.4829 0.305273 -1.0862 0.475835 1.41936 0.419523 -3.94129 0.00794488 0.587794 0.154698
5 1 5.72241 28.2956 -2.67865 2.69086 -0.906142 0.0342517 5.12323 -3.98135 -0.219795 0.407802 -0.184341
107 1 8.62684 28.3911 0.417566 1.62718 -2.83475 -3.52836 0.300442 -4.04562 0.0351965 0.997925 -0.508734
96 1 7.19496 27.0059 -1.19745 3.8854 -2.09663 -3.2721 0.0390746 -4.03841 -0.0586113 -0.0650151 0.659423
195 1 5.7699 25.6353 0.321007 -1.7019 -1.17403 1.74296 0.137705 -3.9204 -0.0915934 -0.301223 0.275299
197 1 8.65402 25.6862 0.376316 -0.592902 -0.620959 0.00800132 0.325008 -4.03593 -0.148965 -0.399981 0.0200415
7 1 8.51249 28.4072 -2.65656 0.305773 -1.36188 3.04787 0.349995 -3.97262 0.223971 0.0641163 -0.437054
191 1 14.1954 25.5315 0.330671 -0.0885336 -4.4938 -0.48509 0.208628 -3.90959 0.393642 0.00716304 -0.560394
98 1 9.85719 27.0277 -1.2438 2.60699 4.64685 0.62246 5.52691 -4.07686 0.939994 -0.0969037 -0.0403717
100 1 12.8111 27.1397 -1.18632 0.688756 2.41483 -3.36628 0.111245 -3.96544 -0.0276432 -0.457959 -0.30634
199 1 11.3947 25.7747 0.377966 -1.77748 -0.753815 0.440887 0.585875 -3.92124 0.184448 -0.304135 0.00101108
99 1 11.3966 25.6653 -2.6978 -3.11862 -0.640777 0.494149 0.14171 -3.99952 -0.151966 -0.185516 -0.190833
102 1 1.43258 1.58866 1.97832 7.38627 -3.29026 1.48818 0.297643 -4.03978 0.564153 0.157936 0.368355
104 1 4.40471 1.70471 1.88434 -2.62904 -0.431866 -2.50035 0.23373 -3.96178 -0.67361 0.152079 -0.205583
202 1 1.64591 1.56967 4.97271 2.02744 3.5456 -1.59179 4.66899 -4.03576 -0.664322 0.540034 0.0187364
203 1 2.94499 0.259696 3.47707 -1.3304 -3.48688 0.0854903 0.129985 -4.0527 -0.201319 0.117328 -0.644893
204 1 4.18458 1.68524 5.05727 -0.935437 1.48785 2.63114 4.59915 -3.99742 0.832105 -0.520944 -0.0331561
213 1 2.88677 3.08084 3.4414 -2.28947 -0.845795 -1.07431 0.359968 -4.02195 0.343933 -0.371122 0.106916
106 1 7.15632 1.63052 1.86865 0.736671 -1.16949 0.0239501 0.247228 -4.0616 0.214519 0.289376 0.835831
205 1 5.64874 0.299036 3.33708 2.33469 0.995414 0.291621 4.69598 -3.91396 0.315909 -0.23189 1.09368
206 1 7.2548 1.68985 5.01717 -1.46106 -1.55409 1.7364 4.84642 -3.95679 -0.185386 -0.402122 -0.161028
207 1 8.58474 0.236208 3.55603 1.31666 3.04051 1.49325 0.154633 -3.96585 0.405314 0.30116 -0.876949
215 1 5.78167 2.95842 3.61055 -1.49422 -2.50707 3.51511 0.531452 -3.96897 -0.531434 0.503147 -0.273708
217 1 8.60442 3.0921 3.50118 -1.80041 2.92479 -5.24384 0.122696 -4.02428 -0.0628272 -0.201669 0.109825
201 1 14.2143 0.277593 3.55981 -0.76465 1.66164 -3.30675 0.324101 -4.0109 -0.144211 0.0645325 0.138717
211 1 14.1953 3.09372 3.61587 0.131749 -3.47244 0.658656 0.278507 -3.95211 0.0783927 -0.504619 0.161077
108 1 9.98023 1.81548 2.00077 1.78008 -0.0382443 0.481447 5.65569 -3.90729 0.288447 -0.814346 -0.0896488
110 1 12.7567 1.63776 1.90714 0.143622 0.261967 0.471904 0.163254 -3.89178 -0.014406 -0.146776 0.286192
219 1 11.4042 3.08595 3.52696 2.96876 -3.6 -0.306264 0.0661759 -3.94468 0.0945405 -0.0215759 -0.0979706
112 1 1.47335 4.44722 2.06519 -2.08488 5.53109 1.88305 0.246406 -3.95453 -0.0990275 0.805802 0.044977
114 1 4.45714 4.53943 2.07808 0.408107 -1.46821 1.68028 5.2143 -4.02749 -0.474324 -0.380404 -0.267761
122 1 1.5387 7.19477 2.0311 -2.178 2.10286 -1.52883 0.267697 -3.89086 -0.187615 0.227328 0.0591788
124 1 4.30599 7.3213 2.00757 -1.70609 -0.894295 0.386355 0.159842 -3.94746 -0.132361 0.380094 0.115674
223 1 3.00176 5.86832 3.56791 -2.9209 -3.41332 -1.19244 0.120256 -4.01494 0.0886931 0.0874498 0.0088374
116 1 7.08446 4.43511 2.00802 -0.717838 -0.661302 1.69127 5.3206 -4.00269 0.47789 0.0702652 0.0535565
126 1 7.33953 7.39572 1.9862 1.37971 -3.46356 0.697126 0.498933 -3.89482 -0.554791 -0.108255 -0.330801
216 1 7.15048 4.45322 4.97418 0.663868 1.20315 1.59813 0.349775 -4.0519 0.199773 0.438854 -0.0904577
225 1 5.7941 6.05956 3.47968 0.299468 -1.75276 -1.18853 5.61215 -3.9612 0.120596 -0.691713 0.247199
227 1 8.61587 5.8789 3.4865 -0.532809 -0.371899 0.126652 0.137468 -3.9736 -0.397277 -0.291944 -0.150239
221 1 14.1524 5.86373 3.58248 0.796103 -1.93786 -0.0692733 0.13105 -4.00533 0.292122 0.23251 -0.513542
118 1 10.0291 4.4796 1.96966 -2.00022 0.251406 -1.34662 0.105402 -4.0517 0.0714672 0.372071 -0.479937
120 1 12.7727 4.51546 1.9035 -2.93314 -0.0391201 0.674702 0.11863 -4.01031 0.112055 -0.420267 0.495296
128 1 10.0124 7.32217 1.91925 -2.7644 2.28321 3.1472 0.134655 -4.03633 -0.431025 -0.121152 -0.150736
130 1 12.7448 7.26336 1.92537 -1.8326 -3.86476 -3.53257 0.168433 -4.02534 0.221188 0.173788 0.196138
218 1 9.92391 4.44006 5.09065 2.54663 2.02038 1.45237 0.0892226 -4.03166 0.270733 0.103761 0.0245462
220 1 12.7806 4.44772 5.08215 -0.879614 -1.25736 1.20844 0.0649088 -3.90264 0.0185104 -0.264277 0.34921
229 1 11.2652 5.91426 3.56156 0.58398 1.74186 -1.1864 0.303838 -4.02274 0.659576 0.205981 0.136717
230 1 12.8446 7.35538 5.00467 2.31232 0.678649 1.21522 0.279625 -3.98098 -0.629388 -0.766024 0.107885
132 1 1.49806 10.2454 1.88421 0.926583 1.77752 2.20689 0.206591 -3.97537 0.0348441 -0.731479 0.693427
134 1 4.33421 10.2257 2.02615 -1.95039 -2.01599 -1.69927 5.45197 -3.94648 0.127348 -0.735469 0.330082
233 1 2.86938 8.7146 3.58516 -0.683116 0.194601 5.31636 0.147551 -3.90844 0.207938 -0.114375 -0.359816
234 1 4.30212 10.2221 5.08851 -0.621179 0.157015 -0.123602 5.47985 -3.97806 0.501811 -0.581624 -0.223215
241 1 0.149986 11.5192 3.48116 -2.41095 0.904273 -0.0212207 0.0945816 -4.01556 -0.197728 -0.31381 0.309898
243 1 2.87755 11.525 3.4265 -0.234391 0.744033 0.670144 0.256467 -3.98666 -0.155065 -0.251251 0.424345
136 1 7.34978 10.1327 2.00271 0.629619 0.98562 1.20116 5.04507 -4.04227 -0.373783 0.0940871 0.027521
235 1 5.87066 8.81598 3.45132 0.465343 -1.43871 1.4062 0.392886 -3.99291 -0.778312 -0.353226 -0.112527
237 1 8.63235 8.75913 3.68243 2.56455 0.935182 0.542097 0.38991 -4.07975 -0.32074 -0.0599015 -0.385781
245 1 5.87987 11.5851 3.51832 0.240801 -0.541356 -0.243051 0.425173 -3.98351 -0.473792 0.0519241 0.00276393
247 1 8.6244 11.498 3.63157 0.432483 -3.51449 2.45946 0.203527 -4.06454 0.186217 0.305535 0.168194
231 1 14.2058 8.74973 3.48009 -0.187028 1.52542 1.17023 0.08746 -4.02833 0.183363 0.138324 -0.203597
138 1 9.92992 10.142 1.93321 -1.64946 -2.47072 4.24093 5.29833 -4.07685 0.815134 -0.536381 0.437854
140 1 12.8378 10.2224 1.94169 -3.06779 0.590986 0.953237 0.19919 -4.03877 -0.782417 -0.260267 0.282577
239 1 11.364 8.67474 3.48774 1.07823 -1.10089 5.00007 0.101777 -4.02542 0.379683 0.41052 -0.339566
240 1 12.788 10.0949 4.93201 0.473313 1.12475 -2.36237 0.398928 -3.92468 -0.0157016 0.344435 0.683097
249 1 11.3994 11.5636 3.62037 0.00818624 4.09037 -1.73351 0.261309 -4.01104 -0.197217 -0.0432659 -0.452753
142 1 1.52181 13.0509 2.04846 -1.28477 -4.17543 2.9049 0.365991 -4.02396 -0.0718885 -0.106955 -0.170056
144 1 4.29805 12.8216 1.87344 1.81958 -2.20134 0.0142737 4.93997 -3.96911 0.370746 0.467399 0.0528414
152 1 1.51339 15.8576 2.02327 -0.669006 2.84052 -0.820189 5.40707 -4.086 0.58217 -0.432898 -0.195022
154 1 4.25725 15.7179 1.9335 2.46855 -1.35996 -1.82568 0.309459 -3.97516 0.712257 0.239093 -0.287954
242 1 1.53992 12.9165 5.05633 0.280113 3.4737 -1.1283 0.125603 -4.04148 0.2441 0.0348522 -0.11708
244 1 4.24982 12.7782 5.08436 2.14938 -0.0921022 -0.749942 5.40619 -3.987 -0.0644581 0.174955 -0.290404
251 1 0.128475 14.4623 3.58493 2.68999 -0.1114 0.508103 0.230885 -3.97871 -0.224994 -0.349616 -0.0412659
252 1 1.63436 15.7834 4.96413 -3.12021 0.366244 0.726554 4.68185 -3.94233 -0.125372 -0.408696 0.247132
253 1 3.02926 14.3678 3.55837 0.643288 -2.70259 -2.00417 0.36339 -3.96945 -0.257126 -0.0417914 -0.0450333
146 1 7.13468 12.9886 1.94862 1.04428 0.1527 -2.62964 0.133198 -3.86209 0.754895 -0.208259 0.138154
156 1 7.1141 15.8395 1.97697 -5.45427 -4.00032 2.42238 0.298954 -3.99199 0.37696 -0.193485 -0.187343
255 1 5.79332 14.3612 3.47112 0.949383 2.2935 -3.25327 0.184171 -3.98305 -0.24231 -0.0938262 0.478151
256 1 7.19239 15.8423 4.9869 -0.861153 0.781607 -0.146585 0.394716 -4.02317 0.262017 -0.695247 -0.176463
257 1 8.60857 14.4287 3.57569 -2.00567 3.54744 2.76289 0.0753938 -3.9722 -0.501992 -0.667767 -0.485467
148 1 10.0789 12.8625 2.05107 2.53119 -0.204599 1.59625 5.27764 -3.9542 -0.342671 0.208018 0.00688038
150 1 12.8144 12.9078 2.01543 0.842405 -1.04171 -0.584461 0.162452 -4.05049 0.634427 -0.00431511 0.21332
158 1 10.0599 15.8093 2.03315 1.95172 -4.28031 -2.67566 0.264593 -3.9394 -0.0383829 -0.11204 0.028031
160 1 12.7974 15.8078 1.92849 2.05154 2.79304 -0.0709358 0.202966 -3.98352 -0.24669 -0.205083 0.65818
250 1 12.9049 12.9601 5.0345 1.45982 -1.9964 -1.75047 0.275711 -4.01804 -0.162792 -0.513965 0.308523
259 1 11.5154 14.2983 3.51669 2.36546 0.76793 -0.871017 0.269419 -4.01886 -0.501809 0.677484 -0.266915
162 1 1.61205 18.4318 1.96204 0.103087 0.473685 0.329909 5.13072 -3.98919 -0.218786 0.227889 0.194533
164 1 4.41893 18.6151 1.8427 -0.211573 3.22505 -5.20284 0.359799 -3.98857 -0.348504 -0.517298 0.134868
262 1 1.64124 18.6991 5.0725 -1.57751 0.894061 -4.43727 5.13722 -4.01713 -0.510194 -0.754738 0.150101
263 1 3.02324 17.1738 3.50273 -2.37006 -0.133771 0.32695 0.271755 -4.02836 0.190948 0.366681 0.307733
271 1 0.239882 19.931 3.40683 -2.9132 -1.24747 -1.34561 0.614176 -4.00496 0.0972461 -0.140369 0.21779
273 1 3.06119 20.0027 3.51955 0.40391 -0.0741893 3.19324 5.51966 -3.99524 0.109405 0.125654 -0.2966
166 1 7.16241 18.5363 1.94291 0.698547 0.150344 -2.49931 0.18722 -4.0299 -0.253673 0.00531794 -0.161238
265 1 5.71847 17.1429 3.64424 -1.6126 -0.82668 -3.54668 0.459949 -4.00538 -0.328491 -0.114797 -0.361346
266 1 7.25348 18.553 4.9882 1.95445 3.37989 -0.145865 5.0422 -3.92524 -0.407033 0.301869 0.246341
267 1 8.63962 17.1234 3.44145 1.62128 1.24999 -1.44411 0.273645 -3.9716 -0.14136 0.338205 0.270796
275 1 5.66392 19.9514 3.52611 0.0670137 -1.38317 -3.87798 5.20339 -3.99535 0.280253 0.070858 0.50103
277 1 8.52362 20.0544 3.51493 0.898333 -0.0775842 -0.479706 0.260307 -4.02309 0.443966 0.0570195 -0.10963
261 1 14.1769 17.1487 3.59937 3.22524 -0.724689 1.23685 0.360411 -4.03533 -0.129543 0.369109 -0.168861
168 1 9.9888 18.5753 1.98754 -3.61858 0.233632 -1.83299 0.218411 -3.95617 -0.0484084 -0.508781 -0.182071
170 1 12.8038 18.6463 2.09796 0.900172 4.64776 -2.52583 0.344749 -4.02569 0.0112374 -0.327335 0.0235364
269 1 11.4148 17.1891 3.70969 1.22914 3.37173 -1.05524 0.415131 -3.98771 0.306854 0.487265 -0.94137
270 1 12.909 18.7314 5.07798 -1.75346 -1.91228 -0.862528 5.43061 -3.96522 -0.385871 -0.0475023 0.666915
279 1 11.3598 20.0486 3.49215 2.0114 -4.45816 0.994583 0.276393 -3.93864 -0.323371 -0.237504 0.52112
172 1 1.47279 21.4257 1.99077 2.33301 -0.225112 2.95214 0.281965 -4.00467 0.620768 0.110945 0.112006
174 1 4.32705 21.4567 1.8312 -1.27528 -0.710527 -1.51037 0.284942 -4.01121 -0.276824 0.124267 0.0616
182 1 1.5749 24.1646 1.94121 -0.784188 -3.79054 -2.16947 0.0654359 -4.02429 -0.535479 0.177059 0.333442
184 1 4.3073 24.238 1.89678 -0.587332 0.565944 -1.32797 0.146279 -4.00195 0.51894 -0.33924 -0.182524
272 1 1.50093 21.4332 4.99427 -1.3891 0.701157 2.48604 0.386451 -4.05829 0.0968751 -0.455435 0.179331
281 1 0.183488 22.7914 3.58177 -2.74019 0.616667 0.622568 0.164122 -3.95119 -0.17648 0.222051 -0.180501
283 1 2.92311 22.8102 3.60027 1.18139 2.06881 4.32688 0.186422 -3.94039 0.384625 -0.0464803 0.191984
176 1 7.06694 21.3141 2.01232 -3.95137 -1.5893 -1.01736 0.397972 -4.01499 -0.17106 -0.173241 -0.267913
186 1 7.17879 24.1447 1.84513 2.78581 2.06017 1.88695 0.197626 -3.91836 0.216922 0.502681 0.0159305
285 1 5.85589 22.7635 3.38569 1.31531 1.02106 -0.50399 0.564705 -3.93656 -1.02278 0.646805 0.491329
287 1 8.6565 22.7436 3.4334 2.42 3.87829 -0.705154 4.93251 -4.09881 -0.351189 0.158127 0.0617315
178 1 9.99102 21.4199 1.90169 -1.13098 -1.50552 3.15931 0.254299 -4.03973 0.7937 -0.122849 0.0306584
180 1 12.8404 21.4228 2.03917 -0.471497 0.0061306 0.269058 0.308553 -4.11702 0.267543 0.00363429 0.323479
188 1 10.0407 24.0693 1.79182 -1.30348 -2.27273 0.479064 4.83528 -3.90734 -0.0475765 0.716344 0.0436334
190 1 12.925 24.1389 1.91234 -1.55903 -2.12372 1.13416 5.59393 -3.90025 -0.938089 -0.0923513 0.0281521
280 1 12.8739 21.3633 5.00886 1.61778 1.13426 1.57654 5.63165 -4.03704 -0.187208 -0.175607 0.129807
289 1 11.3072 22.8471 3.5205 -3.96248 4.07387 -0.259648 0.497547 -4.02143 0.381326 -0.105718 0.0998302
290 1 12.8777 24.1232 5.06691 1.06046 -1.98762 3.24564 0.24002 -4.01654 -0.173228 0.46951 0.384049
192 1 1.54582 26.9795 1.97523 0.832332 -0.820942 0.130328 0.150451 -4.03422 0.0231978 0.319931 0.143864
194 1 4.33343 27.1078 1.91585 -1.61671 -3.20912 1.28134 0.253683 -3.98201 0.0612425 -0.220086 -0.606878
291 1 0.123486 25.6243 3.6422 -1.91934 -0.395923 -0.219087 0.402455 -3.94937 0.0033837 -0.400056 -0.295778
292 1 1.58125 27.1181 4.9793 0.521729 -0.104332 -0.21211 0.282315 -4.04703 -0.193183 -0.592387 -0.0128935
293 1 3.0799 25.6086 3.49154 2.80973 1.17343 -0.298043 5.8539 -3.93057 -0.933305 -0.160387 0.18558
294 1 4.2495 27.1204 5.05919 -1.17778 2.9951 1.58236 0.254693 -3.9755 0.930122 -0.279535 -0.463241
196 1 7.3038 27.0489 2.06257 3.37805 -2.98627 4.17109 4.8944 -3.9419 -0.896009 -0.0684569 -0.71621
295 1 5.73558 25.636 3.46994 2.43808 0.681994 -1.51506 0.163763 -3.99508 0.391269 0.165099 -0.0572152
296 1 7.17419 27.0665 4.96877 0.309675 6.50899 -1.89168 0.257338 -3.92104 -0.221749 0.580232 -0.362569
297 1 8.56397 25.5256 3.51806 -0.134748 1.31643 -3.31811 0.356392 -3.98713 0.625021 -0.044395 0.172104
209 1 11.3537 28.3011 3.58745 -0.393176 -1.47754 0.78913 5.90265 -3.87496 0.409821 0.835897 -0.772242
198 1 9.95313 27.0869 1.85165 0.689763 -0.698924 -1.31982 5.15418 -3.86357 0.215647 -0.115065 0.778758
200 1 13.0099 27.0067 1.90747 5.30296 -0.270392 0.651806 5.51822 -3.91951 -0.82566 0.358501 0.135596
299 1 11.357 25.6421 3.56214 0.613569 6.18239 1.53807 6.2431 -3.8864 0.245336 -0.428527 0.0267141
301 1 0.190771 0.330155 6.5222 0.5675 -0.168496 -2.46061 4.92624 -4.05129 -0.141652 -0.182954 0.330088
302 1 1.52998 1.64637 8.36039 -1.42736 -3.15682 0.972455 0.310661 -4.00399 0.0241025 -0.507676 -0.059565
303 1 2.87995 0.257353 6.68166 0.341516 -0.0404191 -2.60214 0.187491 -4.04844 0.230024 -0.612512 0.2412
304 1 4.29008 1.6221 8.19594 -4.04083 -0.468429 4.02966 0.157728 -3.93948 0.351311 0.792072 0.562163
311 1 0.149724 2.85167 6.67306 -1.74976 0.28104 0.763369 5.21506 -3.92383 -0.389215 1.0169 -0.205352
313 1 2.89377 2.99568 6.5556 0.148637 -0.416692 -0.495992 0.360597 -3.92045 -0.387322 0.351201 0.498786
305 1 5.63949 0.272746 6.67719 -2.6762 0.601797 -1.53878 5.0779 -3.88212 0.605702 0.512178 -0.63121
306 1 7.16827 1.7968 8.22636 -0.497955 1.38302 -0.554626 5.79591 -3.90738 -0.379575 -0.61521 0.521851
307 1 8.54451 0.339894 6.72318 2.06573 -1.47317 -0.377265 0.330488 -4.00938 -0.101755 -0.512287 0.00222034
315 1 5.88369 2.98404 6.59054 0.746495 3.22544 0.384377 5.27773 -4.00136 -0.837706 0.423333 -0.0567836
317 1 8.5575 3.091 6.59185 0.877774 1.33708 0.284955 0.0771801 -4.12149 -0.110184 -0.0959604 0.0960733
208 1 9.93587 1.5992 5.10965 -2.11946 3.54369 -4.60115 0.124556 -4.09074 0.366318 0.687506 0.0570272
210 1 12.7168 1.62492 5.13907 1.93469 -2.84729 3.21644 0.358764 -3.96139 -0.281262 -0.179197 -0.362613
308 1 9.85407 1.73124 8.18152 -3.32365 0.641461 0.348771 0.20767 -3.98833 0.738234 -0.488172 -0.0579306
309 1 11.427 0.271834 6.72101 2.261 -0.338001 1.59023 0.154158 -3.9785 -0.251489 0.0229688 0.0838388
310 1 12.8338 1.67333 8.20355 -2.12593 2.9352 -1.91821 0.172893 -3.96801 -0.472274 -0.432696 -0.0800206
319 1 11.2832 3.0542 6.68099 1.40137 -1.12676 -0.599603 0.109999 -4.0259 0.442215 0.325089 -0.253311
212 1 1.5107 4.56417 5.11605 1.71349 1.1107 -0.37813 5.44274 -4.01293 0.342429 -0.703153 -0.0896017
214 1 4.35594 4.34938 5.13485 -3.60792 0.888428 1.10906 4.9568 -3.97632 -0.131659 0.613379 -0.315583
222 1 1.54559 7.23945 5.0938 2.60978 -1.28947 -2.65909 0.158501 -4.02556 -0.320898 0.0984494 -0.262673
224 1 4.45542 7.31972 5.13103 2.28078 -2.16034 3.83898 0.303167 -3.96507 -0.463599 0.194624 -0.21592
312 1 1.51633 4.46751 8.15767 6.58074 -1.87872 -2.48992 0.250434 -4.00513 0.557219 0.0996629 0.185483
314 1 4.38482 4.47065 8.27671 1.38421 -0.500902 1.94911 0.160933 -3.91802 -0.0571215 -0.410773 -0.427045
322 1 1.50912 7.24612 8.14338 2.77664 -2.04083 2.3912 0.112344 -3.9853 0.161571 -0.553875 0.0837213
323 1 3.05231 5.91185 6.60507 -1.31866 2.39502 -0.268551 0.265393 -3.97749 -0.350171 0.0995281 -0.136758
324 1 4.3708 7.29584 8.17201 1.4459 0.563605 -1.51929 0.128789 -4.00532 -0.0661474 -0.416644 -0.0778114
226 1 7.22143 7.27669 5.09667 -1.92098 2.73055 -2.00716 0.111997 -4.03973 -0.036265 0.024533 0.515841
316 1 7.10763 4.57462 8.21144 2.31643 -3.52172 -0.258836 0.360184 -4.02406 -0.0827334 -1.1876 -0.158895
325 1 5.76431 5.8264 6.5454 -2.43851 2.57701 -2.10025 0.261339 -3.99497 0.292206 0.231934 0.219112
326 1 7.19795 7.24786 8.12193 -1.71798 -0.00966545 0.572563 0.265543 -4.05096 -0.526047 0.533261 -0.284113
327 1 8.55272 5.78657 6.75373 -1.12912 -0.410511 1.0442 0.538463 -3.98424 0.0474038 0.0838032 -0.815957
228 1 9.92162 7.27115 5.17847 0.0778168 -0.255412 1.79302 0.265102 -4.01021 0.00763186 0.153516 -0.0493841
321 1 14.1448 5.82456 6.64538 4.06995 0.134137 -0.309495 0.20035 -3.98148 0.0572998 0.19832 -0.376444
318 1 9.98504 4.43593 8.176 1.75132 -4.65897 3.2673 0.0890571 -4.01903 0.0543822 0.306685 0.125368
320 1 12.7757 4.48205 8.18298 1.89733 -3.11783 2.82706 0.187925 -3.95543 0.258074 -1.01038 0.0805747
328 1 10.0129 7.28399 8.05465 2.65819 -0.927283 -2.4793 0.511419 -3.98489 0.0826988 -0.12693 0.688429
329 1 11.4291 5.87426 6.62767 1.9858 -1.38951 -0.786356 0.074362 -4.00432 -0.0864902 -0.31483 -0.478775
330 1 12.8425 7.28945 8.20493 -1.97867 0.420953 -1.07444 0.0954354 -4.06348 0.258101 -0.0994835 0.461862
232 1 1.56015 10.1641 5.11084 2.12226 0.0705619 -0.681687 0.217179 -4.03573 -0.448932 -0.26147 -0.539273
332 1 1.46321 10.1244 8.23889 1.59487 2.03124 0.780371 0.279091 -4.00553 -0.404275 -0.29553 -0.00899937