ITEM: TIMESTEP
18750
ITEM: NUMBER OF ATOMS
2000
ITEM: BOX BOUNDS pp pp pp
1.0838953229856951e-01 1.4221610467701321e+01
2.1677906459713903e-01 2.8443220935402643e+01
-9.5687655883325173e-02 5.7415687655882891e+01
ITEM: ATOMS id type x y z vx vy vz c_csym c_peratom fx fy fz
2 1 1.62332 1.66863 1.34944 -0.282889 -3.25185 -0.636516 0.277192 -4.10743 -0.437064 0.0994143 -0.238288
4 1 4.35789 1.61575 1.27963 0.990702 -5.33602 3.45801 0.216161 -4.14616 0.4521 -0.203065 0.42389
11 1 0.115605 3.14255 -0.049235 0.617832 -0.194419 3.50607 0.200542 -4.07096 -0.371952 -0.11072 -0.0701524
101 1 0.126621 0.284403 2.75365 -1.57173 1.46596 2.1275 0.151399 -4.10757 -0.119953 -0.282109 0.0169947
103 1 2.85007 0.270771 2.81131 0.287695 0.367304 -1.8153 0.236327 -4.00741 0.367433 -0.0749637 0.0725516
111 1 0.168447 3.08626 2.77925 -2.2925 0.592843 0.179022 0.129895 -4.15763 -0.173023 0.273935 -0.14852
113 1 2.87763 3.13123 2.83293 -1.71434 2.42111 -1.1208 0.324835 -4.08349 -0.342272 -0.131259 -0.0408323
13 1 2.94284 3.10367 -0.0772848 -0.0706192 -1.95523 0.774801 0.0713063 -4.04219 -0.334017 -0.202186 0.0941792
6 1 7.17995 1.58532 1.34291 -1.53139 -1.81767 -2.43971 0.224192 -4.10885 0.349821 0.853356 0.0995743
17 1 8.63608 3.25517 -0.0287315 -1.24355 -0.0988133 -0.860341 4.88585 -4.06045 -0.789972 -0.707698 -0.492455
105 1 5.90739 0.22905 2.78065 0.812795 -1.48127 -4.16198 0.293404 -4.08265 -0.972447 -0.296439 0.145334
115 1 5.79048 3.13764 2.76639 -0.932742 0.818202 0.0439582 0.179027 -4.04792 0.0647691 -0.499959 -0.176181
117 1 8.60233 3.08029 2.84413 0.475293 0.415756 -1.302 0.155884 -4.07069 -0.407945 0.173519 -0.871098
15 1 5.86915 3.09703 -0.0404329 -1.1078 -3.23994 -0.243916 0.286724 -4.02472 -0.47421 0.160458 -0.714773
8 1 9.98472 1.71462 1.23138 1.02028 2.64764 -1.65962 0.365961 -4.0581 -0.585554 0.220476 1.61252
9 1 11.3244 0.287262 0.00139646 -0.628437 1.37052 0.162777 0.377046 -4.05108 1.39477 -0.385829 -0.366108
10 1 12.8557 1.68831 1.28014 -0.261261 2.58464 0.684826 0.128802 -4.04066 -0.576567 0.448925 0.310118
109 1 11.3921 0.306018 2.75172 4.17545 -4.26001 3.01885 0.165725 -4.09733 -0.438865 -0.699154 0.172589
119 1 11.4562 3.11085 2.69942 -0.877516 0.612354 1.13148 0.147955 -4.11577 -0.0742457 -0.0323082 -0.169907
12 1 1.52356 4.6359 1.2506 1.18436 1.40208 1.05812 0.551557 -4.06102 -0.0704537 -0.583877 0.485019
14 1 4.34915 4.42365 1.43934 -0.761965 1.11821 -1.53086 0.267625 -4.10325 -0.247062 0.464945 -0.208921
22 1 1.54026 7.32431 1.27697 0.529166 1.27637 -0.648244 0.232533 -4.0506 -0.197318 -0.266564 0.824588
23 1 3.01689 5.92797 -0.0690675 4.21453 0.286138 -0.65637 0.220707 -4.05361 -0.485431 -0.158746 -0.165227
24 1 4.35552 7.36387 1.3446 0.718611 1.41969 0.425215 0.104225 -4.03329 -0.593649 0.274435 -0.0655416
121 1 0.132435 5.82793 2.77254 -2.35864 3.10392 -0.471262 0.181553 -4.04271 -0.111623 0.478393 -0.15017
123 1 3.01618 5.86763 2.8643 1.00139 1.8653 -1.24788 0.25054 -4.14051 -0.2644 -0.0501364 -0.26367
16 1 7.14135 4.5226 1.41892 0.603539 0.154603 0.133915 0.148608 -4.06364 0.0135455 -0.116598 -0.380882
25 1 5.70759 5.92495 0.0179384 -0.827089 1.1553 2.35682 0.308114 -4.14513 -0.356826 -0.609244 -0.987236
26 1 7.1412 7.16975 1.29686 -0.0337704 2.62343 0.778117 0.519216 -3.93529 0.400476 1.55571 0.525303
125 1 5.74127 5.95799 2.81428 -0.136011 -2.75282 -0.154075 0.137521 -4.20012 0.166817 0.149271 0.252344
127 1 8.57446 5.88387 2.68381 -1.51658 -3.67076 0.00771245 0.345696 -4.10118 0.380498 -0.123349 0.947704
18 1 10.0587 4.47472 1.34602 2.01504 1.15568 0.108705 0.207373 -4.05699 0.24212 0.416376 -0.0350029
20 1 12.7939 4.54238 1.3136 -0.022531 3.00342 -1.17168 0.0577438 -4.1264 0.255329 0.257382 0.116186
28 1 10.1169 7.35391 1.43197 1.08986 -1.21663 1.80841 0.395118 -4.02819 -0.405604 -0.307681 -0.0475913
29 1 11.4127 5.98723 -0.0784859 1.3822 1.47477 -0.555896 0.0532844 -4.13019 -0.178256 -0.230972 -0.600904
30 1 12.8531 7.28188 1.4046 0.362699 -0.519128 0.486825 0.133783 -4.14925 -0.372967 0.615123 -0.418303
129 1 11.3642 5.90889 2.82117 -0.995542 1.01394 2.2528 0.106651 -4.11034 -0.0402865 -0.348698 -0.273114
32 1 1.48279 10.1923 1.2794 2.66336 -1.18469 0.933482 0.212576 -4.12835 0.272237 -0.684411 0.288881
34 1 4.32744 10.195 1.28029 -3.42019 -1.92301 1.41173 0.181424 -4.08149 -0.144399 -0.708657 0.161628
43 1 2.92107 11.628 -0.0740424 2.17426 0.782241 3.50485 0.111327 -4.0955 0.155315 -0.652559 -0.325033
133 1 2.87707 8.77788 2.80475 -1.44944 0.975575 0.710255 0.0890648 -4.08645 0.235768 0.0905419 -0.153253
141 1 0.146359 11.6297 2.69436 -2.20193 -7.04944 -1.51669 0.29327 -4.1176 0.165881 0.0984243 0.689102
143 1 2.92416 11.521 2.78196 -0.572232 1.1909 1.77002 0.158245 -4.12199 -0.408588 0.418589 -0.522517
36 1 7.17897 10.1662 1.39025 0.10168 3.47717 0.174941 0.160046 -3.99672 -0.127768 -0.0793957 0.0165183
47 1 8.63625 11.4798 0.00402253 -1.46078 2.66256 0.234251 0.272043 -4.07644 -0.165153 0.122131 -0.6873
135 1 5.71447 8.72482 2.8784 -0.880733 0.590278 -0.109653 0.276647 -4.10042 0.601736 0.298498 -0.744698
137 1 8.61908 8.74613 2.71939 -4.19951 1.4167 -2.48788 0.344994 -4.11469 -0.31052 -0.157819 -0.194036
145 1 5.78797 11.4174 2.78447 0.913579 -3.10787 0.676852 0.313402 -4.07222 -0.291 0.902362 0.38539
147 1 8.63173 11.5707 2.88377 -2.52053 -2.66134 -2.016 0.179811 -4.09231 -0.390752 0.409387 -0.875465
37 1 8.64539 8.6808 0.0328725 -0.410704 1.96136 0.795798 0.34761 -4.14393 -0.613176 0.624802 -0.487543
41 1 14.1834 11.5242 0.000227257 -1.35835 -5.95404 3.83557 0.231758 -4.06686 -0.187561 0.511489 -0.163624
131 1 14.189 8.78043 2.8986 -1.59748 2.05417 3.03081 0.37272 -4.02752 0.503761 -0.698759 -0.601613
38 1 10.1092 10.2499 1.45644 0.647054 3.02786 -2.05404 0.489489 -4.07138 -0.867621 -0.905908 0.152702
39 1 11.3428 8.78317 -0.0449931 2.80774 -0.622395 -1.00191 0.222865 -4.09998 0.649113 0.0260029 0.33094
40 1 12.8549 10.1114 1.47337 -1.75728 -0.634733 -0.267602 0.229325 -4.10662 0.00941663 -0.0999937 -0.967092
139 1 11.4119 8.69776 2.86603 -0.425376 2.4171 -0.0430739 0.105643 -4.09893 0.0230711 0.438201 -0.46369
149 1 11.4267 11.5446 2.86688 -0.904464 -0.906018 0.248794 0.170373 -4.07584 0.21796 0.494937 -0.406456
49 1 11.351 11.4979 -0.0172856 -3.94296 -1.72452 -3.57845 0.141491 -4.05013 0.567431 0.591364 -0.600085
42 1 1.60077 12.9976 1.26339 -0.841826 -0.173751 0.753914 0.411404 -4.08612 -0.640642 0.529468 0.701397
44 1 4.30049 12.9516 1.24865 -1.17519 0.372824 -0.13007 0.103786 -4.15926 0.618864 0.16189 0.699445
52 1 1.58776 15.7356 1.48617 -0.585983 1.26946 1.71295 0.639127 -4.01703 -0.807975 -0.293658 -0.856874
54 1 4.38463 15.6552 1.34136 0.269637 0.959657 1.9614 0.26128 -4.08865 -0.643332 0.269206 -0.225589
153 1 2.9946 14.2978 2.7947 -3.03426 -0.361765 3.65674 0.163148 -4.01238 -0.0320936 0.0245081 0.0810006
46 1 7.13899 12.8477 1.31748 -0.042375 -0.703018 -2.37022 0.219406 -4.0465 -0.116848 0.410825 0.222279
56 1 7.08452 15.7726 1.26459 0.19616 0.505449 -1.21975 0.237302 -4.08772 0.264273 -0.12938 0.388343
155 1 5.76502 14.3443 2.73947 -0.699273 2.50818 -2.71856 0.102119 -4.10861 -0.265115 -0.311172 0.597912
157 1 8.53251 14.4644 2.82107 1.77519 1.9958 -4.01974 4.89711 -4.11505 -0.0833659 -0.427306 -0.0597518
57 1 8.49816 14.3386 0.0407717 5.27468 2.46447 0.151665 0.461955 -4.00919 0.24452 0.236444 -1.08472
51 1 14.0057 14.3518 -0.0952841 5.08997 3.62125 -2.07853 4.59642 -4.01583 1.28377 -0.48102 -0.415438
151 1 14.2009 14.4155 2.80285 -4.71089 2.01634 -0.85659 0.11725 -4.02729 -0.117285 -0.113163 -0.245995
48 1 9.93985 13.0563 1.36667 2.86016 2.34417 0.701272 0.265514 -4.09518 0.244826 -0.656295 0.432716
50 1 12.7181 12.9904 1.36405 0.559624 -1.36974 -0.820506 0.171246 -4.09629 -0.131635 -0.26122 -0.0239371
58 1 9.99316 15.7186 1.34917 -3.3381 -1.51398 5.38263 0.163327 -4.08946 0.149381 0.347858 0.0266773
60 1 12.7967 15.7437 1.35463 1.53771 1.90327 -4.70531 0.109513 -4.0798 -0.354018 -0.167277 0.656753
159 1 11.3491 14.3264 2.85144 -0.265735 -1.65506 -3.98071 0.149032 -4.08656 0.0162645 0.106199 -0.57614
62 1 1.43944 18.5161 1.38909 0.272627 0.831543 -0.200207 0.114684 -4.04906 0.4526 0.535185 -0.20316
64 1 4.38586 18.6552 1.39313 1.24428 1.0664 2.86252 4.96021 -4.03495 -0.656487 -0.984325 -0.311183
163 1 2.94245 17.1558 2.69306 0.341627 2.40032 0.506019 0.37019 -4.04269 0.721244 0.162735 0.286214
171 1 0.141802 19.9783 2.88749 -0.0590841 -1.37942 4.27312 0.162352 -4.13412 -0.630327 -0.270592 -0.774707
173 1 2.89555 19.9823 2.77341 0.785649 -1.23368 2.3689 0.142026 -4.12871 -0.527757 -0.391712 0.384323
66 1 7.24355 18.6165 1.39238 2.75597 -4.35103 0.905848 0.355675 -4.17974 -0.746214 0.124979 -0.0651523
67 1 8.57677 17.1461 -0.0723369 -4.30079 -3.56988 1.31798 0.0495112 -4.15478 -0.0606705 -0.193649 -0.125608
165 1 5.78304 17.093 2.73074 1.97311 1.99329 -0.167527 0.233015 -4.0616 -0.15446 0.253204 0.376857
167 1 8.56005 17.078 2.67934 1.63712 1.01306 -0.622391 0.520658 -4.08369 0.189463 -0.330596 0.927879
175 1 5.70632 20.007 2.7984 -3.42076 -2.85137 2.01629 0.13025 -4.07186 0.474139 0.330385 -0.36633
177 1 8.58858 20.043 2.99636 -1.05917 0.80188 -0.731301 0.907292 -3.99905 -0.513654 -0.78875 -1.28034
75 1 5.71713 19.9361 -0.0865961 -4.53949 -0.9021 2.29786 0.124095 -4.08489 -0.276035 0.081983 -0.524507
65 1 5.67248 17.193 -0.049882 -1.31158 -3.63153 -0.620776 0.322345 -4.12092 0.527455 -0.315578 -0.0126644
161 1 14.1852 17.2046 2.89253 -8.06951 -0.86164 0.0732044 0.204063 -4.1445 -0.0564572 0.195949 -0.820136
68 1 9.83757 18.5862 1.41776 1.01621 0.95189 3.77626 0.492291 -4.12899 0.818523 0.775894 0.0206719
70 1 12.7582 18.5098 1.3788 -2.75978 -0.241021 0.901339 0.15319 -4.02923 0.364536 0.532154 -0.246133
169 1 11.4357 17.1907 2.78825 -0.050047 0.778513 1.36961 0.107125 -4.08433 -0.46403 -0.333752 0.27915
179 1 11.4548 19.9395 2.8705 0.478562 4.61523 -0.247094 0.240926 -4.1082 -0.515734 0.423969 -0.424029
69 1 11.3235 17.1806 0.00613987 2.51938 -0.439877 2.89062 0.201299 -4.10283 0.58172 -0.53688 -0.782614
71 1 14.189 20.001 0.0125574 -3.02828 1.71166 0.793185 0.288322 -3.97602 0.24082 -0.705826 -0.311287
61 1 14.2026 17.0274 -0.0262547 -2.79754 0.110739 5.17862 0.282211 -4.04077 0.0778233 0.405587 -0.175022
72 1 1.54936 21.3951 1.2992 2.3338 -3.4761 -2.56089 0.16879 -4.14657 -0.524489 -0.117943 0.143088
74 1 4.24289 21.3195 1.42391 -0.775897 2.76848 -0.309503 0.344123 -4.16764 0.792435 0.137216 -0.501447
82 1 1.5098 24.075 1.22948 -0.197856 1.54937 -4.05427 0.279755 -4.13257 0.00388645 0.409791 0.258929
84 1 4.24694 24.1216 1.37034 1.75243 2.83472 -4.12876 0.381477 -4.02228 0.92224 0.972853 -0.471253
181 1 0.128659 22.763 2.73877 -3.03311 -1.67311 -0.629939 0.0454302 -4.08717 -0.139547 -0.514082 -0.00794465
183 1 2.89382 22.7594 2.69802 0.572942 -1.11899 -0.365379 0.145115 -4.11837 -0.345421 0.0192424 0.872882
76 1 7.14056 21.2635 1.34517 -0.691281 0.193514 1.05787 0.358994 -4.01806 0.16298 0.852213 -0.323573
86 1 7.25436 24.2668 1.34769 -2.43118 3.29649 -1.15762 0.394479 -3.97136 -0.458485 -0.643933 -0.633062
185 1 5.72509 22.8979 2.70288 3.67767 -2.14848 -3.35625 0.458722 -4.09812 0.361876 -0.86126 0.348733
187 1 8.47118 22.692 2.8673 -0.732136 -0.532565 -1.73565 0.55477 -4.09589 0.665339 0.0494427 -0.884916
78 1 9.92402 21.3232 1.29192 -2.14879 -1.2859 1.20999 0.207622 -4.10271 0.13831 -0.0403515 0.678892
80 1 12.7264 21.3466 1.36383 -2.02506 0.894117 1.33119 0.0627663 -4.04772 1.12497 -0.115368 -0.184165
88 1 9.99398 24.1702 1.3868 -1.34963 2.3224 -3.76156 0.189426 -4.12723 -0.572986 0.134413 0.187914
90 1 12.8226 24.1983 1.26018 -3.32555 -1.34099 0.789537 0.17317 -4.07573 -1.00562 -0.0282238 0.633282
189 1 11.404 22.6532 2.72143 1.1462 2.87937 3.03823 0.27988 -4.01062 0.0631062 0.954164 0.313384
92 1 1.49183 27.0716 1.33492 -1.55268 0.823337 -0.21304 0.0677984 -4.08283 -0.238366 -0.447197 -0.0699119
93 1 2.95679 25.6072 -0.0768625 -2.98218 -1.24306 2.03838 0.158617 -4.11515 0.201242 0.132697 -0.117062
94 1 4.31233 27.0701 1.48639 -2.42482 -0.468398 -1.32983 0.62021 -4.01788 -0.282819 0.21041 -0.768377
193 1 2.87926 25.4829 2.71221 -1.0862 0.475835 1.41936 0.39727 -4.03466 0.0982437 0.824265 0.325144
5 1 5.72241 28.2956 -0.0184231 2.69086 -0.906142 0.0342517 0.553059 -4.07242 -0.306681 0.43044 -0.829627
107 1 8.62684 28.3911 2.81497 1.62718 -2.83475 -3.52836 0.286952 -4.1152 -0.617273 1.10644 -0.892846
96 1 7.19496 27.0059 1.33705 3.8854 -2.09663 -3.2721 0.0362705 -4.11291 -0.499125 -0.30749 0.392873
195 1 5.7699 25.6353 2.72661 -1.7019 -1.17403 1.74296 0.120329 -4.08814 -0.0165651 -0.262004 0.415735
197 1 8.65402 25.6862 2.77722 -0.592902 -0.620959 0.00800132 0.311464 -4.11122 -0.355529 -0.487762 0.289117
7 1 8.51249 28.4072 0.0017922 0.305773 -1.36188 3.04787 0.314182 -4.05383 -0.171006 0.0827629 -1.13428
191 1 14.1954 25.5315 2.73545 -0.0885336 -4.4938 -0.48509 0.205836 -4.00472 0.496623 0.21166 -0.507755
98 1 9.85719 27.0277 1.29463 2.60699 4.64685 0.62246 0.383105 -4.14581 1.18565 -0.310487 0.176757
100 1 12.8111 27.1397 1.34724 0.688756 2.41483 -3.36628 0.108979 -4.08124 0.309263 -0.315085 0.292039
199 1 11.3947 25.7747 2.77873 -1.77748 -0.753815 0.440887 0.575336 -4.0396 0.238869 -0.407314 0.173913
99 1 11.3966 25.6653 -0.0359448 -3.11862 -0.640777 0.494149 0.134595 -4.09039 -0.117217 -0.351212 0.262242
102 1 1.43258 1.58866 4.24323 7.38627 -3.29026 1.48818 0.290448 -4.09082 0.0931396 0.473461 -0.191677
104 1 4.40471 1.70471 4.15724 -2.62904 -0.431866 -2.50035 0.221801 -4.1036 -0.70943 0.365433 -0.319457
202 1 1.64591 1.56967 6.98345 2.02744 3.5456 -1.59179 0.58244 -4.0617 -0.865836 0.792033 0.50658
203 1 2.94499 0.259696 5.61477 -1.3304 -3.48688 0.0854903 0.125827 -4.10869 0.316715 -0.284758 -0.257934
204 1 4.18458 1.68524 7.06082 -0.935437 1.48785 2.63114 4.25247 -4.07767 1.17347 -0.51222 -0.454133
213 1 2.88677 3.08084 5.58212 -2.28947 -0.845795 -1.07431 0.335168 -4.12559 -0.138401 -0.101244 0.115446
106 1 7.15632 1.63052 4.14288 0.736671 -1.16949 0.0239501 0.224259 -4.14588 0.473552 0.424247 0.94548
205 1 5.64874 0.299036 5.48665 2.33469 0.995414 0.291621 0.53225 -4.0143 0.83988 -0.310611 1.79279
206 1 7.2548 1.68985 7.02412 -1.46106 -1.55409 1.7364 0.342617 -4.0431 -0.273654 -1.00344 -0.0581475
207 1 8.58474 0.236208 5.68702 1.31666 3.04051 1.49325 0.139384 -4.06616 0.133314 0.457898 -0.60295
215 1 5.78167 2.95842 5.73692 -1.49422 -2.50707 3.51511 0.495859 -4.06009 -0.506935 0.215674 -0.678691
217 1 8.60442 3.0921 5.63683 -1.80041 2.92479 -5.24384 0.120072 -4.09313 -0.364185 -0.255132 0.124886
201 1 14.2143 0.277593 5.69048 -0.76465 1.66164 -3.30675 0.305925 -4.11501 0.110669 0.0885816 -0.0934372
211 1 14.1953 3.09372 5.74178 0.131749 -3.47244 0.658656 0.246 -4.10157 0.0164474 -0.296923 -0.377362
108 1 9.98023 1.81548 4.26379 1.78008 -0.0382443 0.481447 0.561933 -4.01805 0.370605 -1.4394 -0.174801
110 1 12.7567 1.63776 4.1781 0.143622 0.261967 0.471904 0.154981 -4.01182 0.132408 0.0304525 0.557289
208 1 9.93587 1.5992 7.10876 -2.11946 3.54369 -4.60115 0.124089 -4.18835 0.155745 0.270283 -0.0216075
210 1 12.7168 1.62492 7.13568 1.93469 -2.84729 3.21644 0.349403 -4.05476 -0.0352584 0.00848067 -0.401701
219 1 11.4042 3.08595 5.66042 2.96876 -3.6 -0.306264 0.0647683 -4.05138 -0.233116 -0.383333 0.249046
112 1 1.47335 4.44722 4.32273 -2.08488 5.53109 1.88305 0.222197 -4.03547 0.383447 0.929151 -0.494393
114 1 4.45714 4.53943 4.33452 0.408107 -1.46821 1.68028 0.421382 -4.10008 -0.222667 -0.46535 0.051148
122 1 1.5387 7.19477 4.29154 -2.178 2.10286 -1.52883 0.262978 -4.0083 -0.586238 0.534412 -0.349129
124 1 4.30599 7.3213 4.27001 -1.70609 -0.894295 0.386355 0.155463 -3.99379 -0.0389215 0.299124 0.170454
212 1 1.5107 4.56417 7.11461 1.71349 1.1107 -0.37813 0.377243 -4.11103 0.228041 -0.73949 0.18465
214 1 4.35594 4.34938 7.13182 -3.60792 0.888428 1.10906 4.65245 -4.10999 -0.119322 0.925986 -0.260194
222 1 1.54559 7.23945 7.09425 2.60978 -1.28947 -2.65909 0.154528 -4.12122 -0.123203 -0.342707 0.0182827
223 1 3.00176 5.86832 5.69789 -2.9209 -3.41332 -1.19244 0.119279 -4.12241 -0.0923587 0.148032 -0.303477
224 1 4.45542 7.31972 7.12832 2.28078 -2.16034 3.83898 0.288038 -4.06053 -1.21787 0.2996 -0.747777
116 1 7.08446 4.43511 4.27041 -0.717838 -0.661302 1.69127 0.353292 -4.11628 0.437406 0.748646 -0.174565
126 1 7.33953 7.39572 4.25045 1.37971 -3.46356 0.697126 0.481168 -4.01149 -0.908988 -0.351817 -0.362322
216 1 7.15048 4.45322 6.98479 0.663868 1.20315 1.59813 0.314927 -4.1482 0.37516 0.607868 0.423435
225 1 5.7941 6.05956 5.61716 0.299468 -1.75276 -1.18853 0.610734 -4.06035 -0.304893 -0.470131 0.289937
226 1 7.22143 7.27669 7.09689 -1.92098 2.73055 -2.00716 0.109082 -4.15219 0.0526268 0.0760332 -0.179189
227 1 8.61587 5.8789 5.62339 -0.532809 -0.371899 0.126652 0.125861 -4.05566 0.0358647 0.145554 0.219485
221 1 14.1524 5.86373 5.71123 0.796103 -1.93786 -0.0692733 0.122096 -4.08281 0.170417 0.12544 -0.37941
118 1 10.0291 4.4796 4.23531 -2.00022 0.251406 -1.34662 0.0971925 -4.14124 -0.348239 0.270778 -0.132723
120 1 12.7727 4.51546 4.17477 -2.93314 -0.0391201 0.674702 0.104832 -4.13072 -0.0279947 -0.189703 0.368425
128 1 10.0124 7.32217 4.18918 -2.7644 2.28321 3.1472 0.119396 -4.12183 -0.701329 -0.19973 -0.00596188
130 1 12.7448 7.26336 4.19478 -1.8326 -3.86476 -3.53257 0.153262 -4.12537 0.41729 -0.337205 0.399291
218 1 9.92391 4.44006 7.09137 2.54663 2.02038 1.45237 0.0870122 -4.13433 0.496899 -0.156803 0.0419318
220 1 12.7806 4.44772 7.0836 -0.879614 -1.25736 1.20844 0.0614751 -4.02264 -0.0796769 -0.351319 0.141045
228 1 9.92162 7.27115 7.17174 0.0778168 -0.255412 1.79302 0.249038 -4.10906 0.115424 0.393291 -0.45235
229 1 11.2652 5.91426 5.69208 0.58398 1.74186 -1.1864 0.295691 -4.10642 1.17111 -0.192859 -0.211428
230 1 12.8446 7.35538 7.01269 2.31232 0.678649 1.21522 0.269429 -4.07654 -0.479689 -0.893637 0.222133
132 1 1.49806 10.2454 4.15712 0.926583 1.77752 2.20689 0.196628 -4.04452 0.0999328 -0.520091 0.576791
134 1 4.33421 10.2257 4.28701 -1.95039 -2.01599 -1.69927 0.269073 -4.05365 0.176307 -0.589198 -0.0412647
232 1 1.56015 10.1641 7.10985 2.12226 0.0705619 -0.681687 0.202349 -4.11851 -0.481507 -0.373018 -0.4137
233 1 2.86938 8.7146 5.71368 -0.683116 0.194601 5.31636 0.142373 -4.0801 0.265813 0.042795 -0.822157
234 1 4.30212 10.2221 7.08941 -0.621179 0.157015 -0.123602 5.11295 -4.11156 0.912004 -0.203709 0.259924
241 1 0.149986 11.5192 5.61851 -2.41095 0.904273 -0.0212207 0.0896415 -4.08334 -0.0955234 0.263088 0.192401
243 1 2.87755 11.525 5.56849 -0.234391 0.744033 0.670144 0.229825 -4.05225 -0.219589 -0.16694 0.495134
136 1 7.34978 10.1327 4.26556 0.629619 0.98562 1.20116 0.358292 -4.10178 -1.00682 0.531231 -0.315042
235 1 5.87066 8.81598 5.5912 0.465343 -1.43871 1.4062 0.363495 -4.09663 -0.824415 -0.860524 0.162901
236 1 7.13391 10.1574 7.11559 2.36863 -0.429749 -0.449581 0.254366 -4.13464 -0.112665 0.161437 -0.0263016
237 1 8.63235 8.75913 5.80269 2.56455 0.935182 0.542097 0.337456 -4.1385 -0.0800868 -0.354105 -0.616706
245 1 5.87987 11.5851 5.65251 0.240801 -0.541356 -0.243051 0.422039 -4.08285 -0.431834 -0.0790602 -0.194753
247 1 8.6244 11.498 5.75615 0.432483 -3.51449 2.45946 0.186777 -4.1478 0.0168372 0.443612 0.0236034
231 1 14.2058 8.74973 5.61753 -0.187028 1.52542 1.17023 0.0847708 -4.14604 0.578974 -0.439399 0.0292165
138 1 9.92992 10.142 4.20196 -1.64946 -2.47072 4.24093 0.257681 -4.15896 0.885419 -0.110776 0.836595
140 1 12.8378 10.2224 4.20972 -3.06779 0.590986 0.953237 0.185752 -4.15057 -0.239385 -0.470326 0.187991
238 1 10.0462 10.0877 7.11493 4.00462 1.03455 -0.403308 0.137209 -4.05363 0.480432 0.550485 0.339236
239 1 11.364 8.67474 5.62453 1.07823 -1.10089 5.00007 0.0949217 -4.11906 0.234709 0.270392 -0.142965
240 1 12.788 10.0949 6.9462 0.473313 1.12475 -2.36237 0.349892 -4.02301 0.049943 0.398882 0.9128
249 1 11.3994 11.5636 5.7459 0.00818624 4.09037 -1.73351 0.232177 -4.10026 -0.278317 -0.133398 -0.230648
142 1 1.52181 13.0509 4.30742 -1.28477 -4.17543 2.9049 0.333434 -4.15128 0.0977724 -0.0889604 -0.45768
144 1 4.29805 12.8216 4.14726 1.81958 -2.20134 0.0142737 0.394328 -4.08959 0.65464 0.557274 0.283267
152 1 1.51339 15.8576 4.28438 -0.669006 2.84052 -0.820189 5.03278 -4.18319 0.628443 -0.716377 -0.852113
154 1 4.25725 15.7179 4.20222 2.46855 -1.35996 -1.82568 0.302405 -4.08347 0.774953 0.716449 -0.299613
242 1 1.53992 12.9165 7.05996 0.280113 3.4737 -1.1283 0.113322 -4.17292 0.148522 0.106592 0.429305
244 1 4.24982 12.7782 7.08562 2.14938 -0.0921022 -0.749942 5.01394 -4.11028 0.081379 0.515492 -0.333942
251 1 0.128475 14.4623 5.71347 2.68999 -0.1114 0.508103 0.217388 -4.08751 0.0647472 -0.54615 -0.229205
252 1 1.63436 15.7834 6.97559 -3.12021 0.366244 0.726554 0.437513 -4.03423 0.240642 -0.378486 0.868938
253 1 3.02926 14.3678 5.68916 0.643288 -2.70259 -2.00417 0.345951 -4.04364 -0.225098 -0.191271 -0.473396
254 1 4.32401 15.7314 7.17586 -3.29084 -1.84392 -1.68306 0.256915 -4.04293 0.0787672 0.229896 -0.467498
146 1 7.13468 12.9886 4.21606 1.04428 0.1527 -2.62964 0.130722 -3.95811 0.765454 -0.198001 0.387284
156 1 7.1141 15.8395 4.242 -5.45427 -4.00032 2.42238 0.283844 -4.05959 -0.155886 0.0586066 -0.0424868
246 1 7.17912 12.9922 7.12862 0.991656 -1.68864 -0.448699 0.133041 -4.04648 0.303294 0.0257503 -0.172372
255 1 5.79332 14.3612 5.60932 0.949383 2.2935 -3.25327 0.172502 -4.14244 -0.78495 -0.0234632 0.666427
256 1 7.19239 15.8423 6.99643 -0.861153 0.781607 -0.146585 0.358209 -4.05776 0.657449 -0.768793 0.140439
257 1 8.60857 14.4287 5.70501 -2.00567 3.54744 2.76289 0.0712086 -4.10241 -0.102388 -0.697291 -0.702156
148 1 10.0789 12.8625 4.30981 2.53119 -0.204599 1.59625 0.296382 -4.05041 -0.777616 0.758829 -0.0537227
150 1 12.8144 12.9078 4.2772 0.842405 -1.04171 -0.584461 0.152451 -4.14858 0.468964 0.419862 -0.418691
158 1 10.0599 15.8093 4.29341 1.95172 -4.28031 -2.67566 0.244825 -4.06759 0.312332 -0.279338 -0.334308
160 1 12.7974 15.8078 4.19763 2.05154 2.79304 -0.0709358 0.179267 -4.10353 0.0467685 -0.261022 0.461928
248 1 10.001 13.0598 7.1334 1.15591 3.93167 -3.97146 0.32439 -4.04809 0.127034 -0.328653 -0.200341
250 1 12.9049 12.9601 7.03999 1.45982 -1.9964 -1.75047 0.245581 -4.10823 0.0782225 -0.426208 0.439467
258 1 10.0849 15.781 7.09678 3.15439 -2.57917 -3.22034 0.182431 -4.1322 -0.349923 -0.330159 0.168058
259 1 11.5154 14.2983 5.65102 2.36546 0.76793 -0.871017 0.264716 -4.10361 -0.693321 0.828607 0.0124391
260 1 12.7221 15.7462 7.12346 1.07372 0.97037 -2.70378 0.522735 -4.02196 0.673934 0.11604 0.331093
162 1 1.61205 18.4318 4.22834 0.103087 0.473685 0.329909 0.466402 -4.09463 -0.0885041 0.500164 0.254039
164 1 4.41893 18.6151 4.11913 -0.211573 3.22505 -5.20284 0.327663 -4.06371 -0.422159 -0.736393 0.373483
262 1 1.64124 18.6991 7.07476 -1.57751 0.894061 -4.43727 0.341317 -4.1276 -0.912822 -0.666096 0.0758755
263 1 3.02324 17.1738 5.63825 -2.37006 -0.133771 0.32695 0.2527 -4.10926 -0.0115724 0.197974 0.373494
264 1 4.25569 18.5351 7.21305 2.99979 1.41468 -0.253245 0.460928 -4.06293 0.913625 0.435606 -0.545246
271 1 0.239882 19.931 5.55048 -2.9132 -1.24747 -1.34561 0.572521 -4.06568 -0.301511 0.112881 0.451709
273 1 3.06119 20.0027 5.65363 0.40391 -0.0741893 3.19324 0.350501 -4.11959 -0.259588 0.62024 -0.499538
166 1 7.16241 18.5363 4.21083 0.698547 0.150344 -2.49931 0.162466 -4.18334 0.277015 -0.335031 -0.239789
265 1 5.71847 17.1429 5.76774 -1.6126 -0.82668 -3.54668 0.398292 -4.1121 -0.611312 0.53032 -0.849348
266 1 7.25348 18.553 6.99762 1.95445 3.37989 -0.145865 0.523867 -4.03677 -0.502749 0.0294104 0.316758
267 1 8.63962 17.1234 5.58217 1.62128 1.24999 -1.44411 0.251404 -4.06481 -0.700135 0.265761 0.84165
275 1 5.66392 19.9514 5.65964 0.0670137 -1.38317 -3.87798 0.293225 -4.10669 0.484506 -0.0061071 0.483072
277 1 8.52362 20.0544 5.64941 0.898333 -0.0775842 -0.479706 0.247724 -4.13534 0.369195 -0.292434 0.184122
261 1 14.1769 17.1487 5.72668 3.22524 -0.724689 1.23685 0.347472 -4.13252 0.380532 0.381946 0.231652
168 1 9.9888 18.5753 4.25167 -3.61858 0.233632 -1.83299 0.189701 -4.08496 -0.145555 -0.231478 -0.105806
170 1 12.8038 18.6463 4.35272 0.900172 4.64776 -2.52583 0.309756 -4.09868 -0.249832 -0.518246 -0.693258
268 1 9.90461 18.5053 7.18875 4.57801 -0.241298 0.328247 0.286452 -4.05941 0.385783 0.289386 -0.603526
269 1 11.4148 17.1891 5.82764 1.22914 3.37173 -1.05524 0.362192 -4.06296 0.766726 0.461257 -1.11653
270 1 12.909 18.7314 7.07978 -1.75346 -1.91228 -0.862528 0.521494 -4.08181 -0.610211 -0.195261 0.84481
279 1 11.3598 20.0486 5.62857 2.0114 -4.45816 0.994583 0.249628 -4.0613 -0.343597 -0.187272 0.367561
172 1 1.47279 21.4257 4.25463 2.33301 -0.225112 2.95214 0.263821 -4.10253 0.921617 0.180191 -0.543728
174 1 4.32705 21.4567 4.1086 -1.27528 -0.710527 -1.51037 0.257366 -4.10152 -0.0352958 -0.0841859 0.144754
182 1 1.5749 24.1646 4.20928 -0.784188 -3.79054 -2.16947 0.06413 -4.15924 -0.694699 0.448978 0.160766
184 1 4.3073 24.238 4.16862 -0.587332 0.565944 -1.32797 0.141722 -4.08898 0.23411 -0.282724 -0.154281
272 1 1.50093 21.4332 7.00317 -1.3891 0.701157 2.48604 0.349566 -4.13203 0.570539 -0.370825 0.847696
274 1 4.4257 21.4489 7.15718 2.59471 -0.91757 -0.537123 0.25123 -4.03804 -0.100196 -0.252708 -0.906463
281 1 0.183488 22.7914 5.71057 -2.74019 0.616667 0.622568 0.143812 -4.01067 -0.637477 0.750341 -0.630723
282 1 1.52472 24.1909 7.16474 -1.23117 0.365724 -0.651941 0.154377 -4.11435 0.855826 0.227827 -1.01574
283 1 2.92311 22.8102 5.72751 1.18139 2.06881 4.32688 0.162062 -4.05773 0.701184 -0.142737 -0.308708
284 1 4.42474 24.2671 7.13385 -2.88227 1.45219 3.65201 0.155767 -4.04861 0.224203 -0.376193 -0.49727
176 1 7.06694 21.3141 4.27435 -3.95137 -1.5893 -1.01736 0.384327 -4.06502 0.39407 0.0809941 -1.08244
186 1 7.17879 24.1447 4.12136 2.78581 2.06017 1.88695 0.183144 -4.01079 -0.117872 0.79643 0.575316
276 1 7.10716 21.4372 7.14677 2.60993 -1.18025 -2.38511 0.232588 -4.07149 0.265343 -0.359358 -0.257917
285 1 5.85589 22.7635 5.53114 1.31531 1.02106 -0.50399 0.514051 -4.03668 -1.56971 1.11767 1.1496
286 1 7.16944 24.2408 7.12811 1.08031 -1.08147 0.839848 0.260857 -4.06324 0.0831182 -0.318631 -0.335991
287 1 8.6565 22.7436 5.5748 2.42 3.87829 -0.705154 0.321331 -4.2296 -0.512845 0.790347 0.944892
178 1 9.99102 21.4199 4.17311 -1.13098 -1.50552 3.15931 0.229912 -4.07542 0.640081 0.195025 0.127059
180 1 12.8404 21.4228 4.29893 -0.471497 0.0061306 0.269058 0.276958 -4.20738 -0.0313033 -0.0148666 -0.100063
188 1 10.0407 24.0693 4.07257 -1.30348 -2.27273 0.479064 0.781932 -3.9865 -0.109279 1.30571 0.0976812
190 1 12.925 24.1389 4.18286 -1.55903 -2.12372 1.13416 0.397073 -4.03335 -0.731678 0.222824 0.134006
278 1 9.94955 21.4304 7.19524 1.38589 -0.978514 1.96516 0.300827 -4.00317 0.244568 -0.698602 -0.658876
280 1 12.8739 21.3633 7.01652 1.61778 1.13426 1.57654 0.279655 -4.17157 0.0150478 0.0267103 0.385982
288 1 10.0194 24.1956 7.17678 2.68269 2.22443 1.78439 0.361098 -4.0237 -0.772961 -0.137107 -0.130025
289 1 11.3072 22.8471 5.65451 -3.96248 4.07387 -0.259648 0.480985 -4.12459 0.416742 -0.260524 0.275218
290 1 12.8777 24.1232 7.06965 1.06046 -1.98762 3.24564 0.233607 -4.12597 -0.355633 0.222197 0.240044
192 1 1.54582 26.9795 4.24041 0.832332 -0.820942 0.130328 0.142245 -4.19194 -0.303451 0.29891 -0.491887
194 1 4.33343 27.1078 4.18607 -1.61671 -3.20912 1.28134 0.246976 -4.08915 -0.150918 -0.476658 -0.515153
291 1 0.123486 25.6243 5.76587 -1.91934 -0.395923 -0.219087 0.353672 -4.01995 -0.111562 -0.641888 -0.991672
292 1 1.58125 27.1181 6.98948 0.521729 -0.104332 -0.21211 0.249478 -4.16332 0.254579 -0.870473 0.225319
293 1 3.0799 25.6086 5.628 2.80973 1.17343 -0.298043 0.377153 -4.02723 -0.809148 -0.240401 0.385033
294 1 4.2495 27.1204 7.06258 -1.17778 2.9951 1.58236 0.248412 -4.08167 0.965968 -0.1434 -0.276967
196 1 7.3038 27.0489 4.32034 3.37805 -2.98627 4.17109 0.551141 -4.03973 -1.08152 -0.0456464 -1.10852
295 1 5.73558 25.636 5.60823 2.43808 0.681994 -1.51506 0.149836 -4.13333 0.269519 0.277126 0.204343
296 1 7.17419 27.0665 6.97984 0.309675 6.50899 -1.89168 0.233004 -3.98995 -0.0669099 0.834115 0.258393
297 1 8.56397 25.5256 5.65227 -0.134748 1.31643 -3.31811 0.335958 -4.14457 0.849563 -0.0575206 -0.0875224
209 1 11.3537 28.3011 5.71578 -0.393176 -1.47754 0.78913 0.764765 -4.00645 0.957081 1.07213 -1.32512
198 1 9.95313 27.0869 4.12732 0.689763 -0.698924 -1.31982 0.283898 -3.92051 0.565711 -0.333916 1.10166
200 1 13.0099 27.0067 4.1784 5.30296 -0.270392 0.651806 0.920836 -4.01966 -0.859621 0.308428 0.261745
298 1 9.9521 27.1594 7.13638 1.28797 -2.74568 -4.13594 0.322992 -4.06365 -0.400662 -0.656091 0.644536
299 1 11.357 25.6421 5.69261 0.613569 6.18239 1.53807 0.317065 -4.06128 0.141292 -0.209911 -0.180876
300 1 12.9347 27.0657 7.12903 -0.577292 -1.28953 -3.83829 0.291752 -4.09765 -0.901673 0.0693038 0.0733577
301 1 0.190771 0.330155 8.4014 0.5675 -0.168496 -2.46061 4.64074 -4.13627 0.32148 -0.182838 0.40136
302 1 1.52998 1.64637 10.0836 -1.42736 -3.15682 0.972455 0.2675 -4.09171 0.0643832 -0.0411676 -0.613494
303 1 2.87995 0.257353 8.54733 0.341516 -0.0404191 -2.60214 0.178187 -4.11767 0.160071 -0.622627 0.32724
304 1 4.29008 1.6221 9.93306 -4.04083 -0.468429 4.02966 0.147196 -4.06814 0.293354 0.868921 0.32992
311 1 0.149724 2.85167 8.53946 -1.74976 0.28104 0.763369 4.91947 -4.05783 0.168555 1.39056 -0.814335
313 1 2.89377 2.99568 8.43197 0.148637 -0.416692 -0.495992 0.325213 -4.02166 -0.400295 0.880293 1.245
403 1 2.9679 0.297361 11.4415 0.394335 0.406084 2.23505 0.171304 -4.10182 0.165571 -0.432677 -0.518793
411 1 0.156785 3.04543 11.3986 0.660313 -0.658618 -1.38298 0.132198 -4.12971 -0.682826 0.669195 -0.251304
413 1 2.87494 3.0559 11.503 -3.05234 -3.9865 -0.430171 0.310526 -4.14337 0.583843 0.0868941 -0.66702
305 1 5.63949 0.272746 8.54324 -2.6762 0.601797 -1.53878 0.2687 -4.03838 1.2209 0.146338 -0.55518
306 1 7.16827 1.7968 9.96091 -0.497955 1.38302 -0.554626 0.422049 -3.95397 -0.669832 -1.27322 0.616034
307 1 8.54451 0.339894 8.58532 2.06573 -1.47317 -0.377265 0.3059 -4.11462 -0.122889 -0.897988 0.161527
315 1 5.88369 2.98404 8.46394 0.746495 3.22544 0.384377 0.617766 -4.0492 -1.33982 0.70894 0.0105566
317 1 8.5575 3.091 8.46514 0.877774 1.33708 0.284955 0.0710805 -4.21336 -0.606606 -0.0577028 0.411058