ITEM: TIMESTEP
153500
ITEM: NUMBER OF ATOMS
2000
ITEM: BOX BOUNDS pp pp pp
1.0838953229856951e-01 1.4221610467701321e+01
2.1677906459713903e-01 2.8443220935402643e+01
-3.8992006979743667e+00 6.1219200697973925e+01
ITEM: ATOMS id type x y z vx vy vz c_csym c_peratom fx fy fz
2 1 1.62332 1.66863 -2.26292 -0.282889 -3.25185 -0.636516 0.279687 -3.95642 -0.585699 0.205519 -0.368053
4 1 4.35789 1.61575 -2.34197 0.990702 -5.33602 3.45801 6.0106 -3.942 0.0294407 -0.0645185 0.444571
11 1 0.115605 3.14255 -3.8466 0.617832 -0.194419 3.50607 0.248666 -3.87456 0.21765 0.136296 -0.173249
101 1 0.126621 0.284403 -0.672981 -1.57173 1.46596 2.1275 0.153529 -3.99052 -0.365243 -0.0739409 -0.143858
103 1 2.85007 0.270771 -0.60769 0.287695 0.367304 -1.8153 0.249464 -3.84491 0.68275 0.266794 0.25992
111 1 0.168447 3.08626 -0.643998 -2.2925 0.592843 0.179022 0.135533 -3.94493 0.225451 -0.0577853 0.0577852
113 1 2.87763 3.13123 -0.58321 -1.71434 2.42111 -1.1208 5.92662 -3.9094 -0.283487 -0.12039 0.0251966
13 1 2.94284 3.10367 -3.87836 -0.0706192 -1.95523 0.774801 0.0763333 -3.88161 -0.157397 -0.147197 -0.0567444
6 1 7.17995 1.58532 -2.27032 -1.53139 -1.81767 -2.43971 0.235081 -3.92777 -0.280016 0.563041 -0.175016
17 1 8.63608 3.25517 -3.82339 -1.24355 -0.0988133 -0.860341 9.96044 -3.9244 -0.134947 -0.802645 -0.398533
105 1 5.90739 0.22905 -0.642409 0.812795 -1.48127 -4.16198 0.29669 -3.93014 -0.141681 -0.42792 -0.15947
115 1 5.79048 3.13764 -0.658555 -0.932742 0.818202 0.0439582 0.186232 -3.91189 -0.0254495 -0.309385 0.392236
117 1 8.60233 3.08029 -0.570533 0.475293 0.415756 -1.302 0.180325 -3.89938 -0.184737 -0.0349331 -0.669074
15 1 5.86915 3.09703 -3.83664 -1.1078 -3.23994 -0.243916 0.305712 -3.84973 -0.507741 0.306037 -0.349016
8 1 9.98472 1.71462 -2.39661 1.02028 2.64764 -1.65962 0.451775 -3.91631 -0.388933 -0.0118918 0.641832
9 1 11.3244 0.287262 -3.78928 -0.628437 1.37052 0.162777 0.437566 -3.91146 0.605669 0.022485 -0.190263
10 1 12.8557 1.68831 -2.34139 -0.261261 2.58464 0.684826 0.148762 -3.89646 -0.077856 0.0645401 0.558614
109 1 11.3921 0.306018 -0.675163 4.17545 -4.26001 3.01885 0.174327 -3.9083 -0.0889033 -0.593561 -0.0135571
119 1 11.4562 3.11085 -0.734389 -0.877516 0.612354 1.13148 0.165225 -3.95326 -0.508391 -0.225655 0.0982699
12 1 1.52356 4.6359 -2.37484 1.18436 1.40208 1.05812 5.95098 -3.90266 0.275694 -0.733023 0.605699
14 1 4.34915 4.42365 -2.16113 -0.761965 1.11821 -1.53086 0.283631 -3.96546 -0.172788 0.199309 -0.37361
22 1 1.54026 7.32431 -2.34498 0.529166 1.27637 -0.648244 5.97029 -3.88324 -0.0459876 0.139283 0.751641
23 1 3.01689 5.92797 -3.86906 4.21453 0.286138 -0.65637 0.228566 -3.88703 -0.621659 0.268914 -0.556137
24 1 4.35552 7.36387 -2.26841 0.718611 1.41969 0.425215 0.114481 -3.91234 -0.166139 -0.0954077 0.0343838
121 1 0.132435 5.82793 -0.651593 -2.35864 3.10392 -0.471262 0.1972 -3.89863 0.334445 0.574697 -0.0265539
123 1 3.01618 5.86763 -0.547692 1.00139 1.8653 -1.24788 5.94219 -3.92305 -0.307012 -0.135263 0.0577728
16 1 7.14135 4.5226 -2.18425 0.603539 0.154603 0.133915 0.168934 -3.94473 -0.091407 0.00254216 0.00259847
25 1 5.70759 5.92495 -3.77055 -0.827089 1.1553 2.35682 5.16932 -3.96337 0.297196 -0.434769 -0.649386
26 1 7.1412 7.16975 -2.32246 -0.0337704 2.62343 0.778117 5.34562 -3.85197 0.0692579 0.643202 0.172137
125 1 5.74127 5.95799 -0.604333 -0.136011 -2.75282 -0.154075 0.13966 -4.03061 0.219152 -0.188451 -0.0475702
127 1 8.57446 5.88387 -0.75206 -1.51658 -3.67076 0.00771245 0.416023 -3.90152 0.36261 0.3433 0.445068
18 1 10.0587 4.47472 -2.2668 2.01504 1.15568 0.108705 0.223372 -3.93947 -0.100209 0.50342 0.405919
20 1 12.7939 4.54238 -2.3035 -0.022531 3.00342 -1.17168 0.0663954 -3.99243 0.227762 0.169866 -0.116957
28 1 10.1169 7.35391 -2.16948 1.08986 -1.21663 1.80841 5.64843 -3.91475 -0.331134 -0.451799 -0.214688
29 1 11.4127 5.98723 -3.87972 1.3822 1.47477 -0.555896 0.0547761 -3.95695 -0.304457 -0.0455988 -0.325024
30 1 12.8531 7.28188 -2.20047 0.362699 -0.519128 0.486825 0.140148 -3.9645 -0.423925 0.444962 0.0192333
129 1 11.3642 5.90889 -0.596535 -0.995542 1.01394 2.2528 0.115409 -3.99695 0.280261 -0.18273 -0.184465
32 1 1.48279 10.1923 -2.34223 2.66336 -1.18469 0.933482 0.253335 -4.01414 0.129034 -0.477704 0.144545
34 1 4.32744 10.195 -2.34123 -3.42019 -1.92301 1.41173 0.207508 -3.92299 -0.0511793 -0.503012 0.175385
43 1 2.92107 11.628 -3.87469 2.17426 0.782241 3.50485 0.126515 -4.01029 -0.161937 -0.481156 -0.417267
133 1 2.87707 8.77788 -0.615124 -1.44944 0.975575 0.710255 0.0943439 -3.85347 0.352887 -0.369779 -0.0131369
141 1 0.146359 11.6297 -0.740118 -2.20193 -7.04944 -1.51669 0.351536 -3.97704 0.222547 0.179737 0.491541
143 1 2.92416 11.521 -0.640925 -0.572232 1.1909 1.77002 0.170824 -3.99835 -0.312465 0.0772377 -0.695359
36 1 7.17897 10.1662 -2.21672 0.10168 3.47717 0.174941 0.176815 -3.85433 -0.0765737 -0.131453 0.0448936
47 1 8.63625 11.4798 -3.7863 -1.46078 2.66256 0.234251 0.305545 -3.93422 -0.159334 -0.313279 -0.430763
135 1 5.71447 8.72482 -0.531728 -0.880733 0.590278 -0.109653 5.86754 -3.87973 0.35649 0.0239681 -0.340648
137 1 8.61908 8.74613 -0.711769 -4.19951 1.4167 -2.48788 0.390744 -3.94583 -0.286538 -0.291267 -0.121687
145 1 5.78797 11.4174 -0.638086 0.913579 -3.10787 0.676852 5.88739 -3.89861 -0.200523 0.585489 0.465275
147 1 8.63173 11.5707 -0.525649 -2.52053 -2.66134 -2.016 0.206167 -3.94155 -0.17909 0.08922 -0.60909
37 1 8.64539 8.6808 -3.75364 -0.410704 1.96136 0.795798 5.58444 -3.98633 -0.151893 0.069669 -0.241094
41 1 14.1834 11.5242 -3.7906 -1.35835 -5.95404 3.83557 0.266262 -3.9618 -0.34422 0.372802 -0.345326
131 1 14.189 8.78043 -0.508854 -1.59748 2.05417 3.03081 0.445272 -3.86038 0.333009 -0.524369 -0.0802282
38 1 10.1092 10.2499 -2.14177 0.647054 3.02786 -2.05404 0.504134 -3.95436 -0.510222 -0.627028 0.577553
39 1 11.3428 8.78317 -3.8418 2.80774 -0.622395 -1.00191 0.224855 -3.94438 0.213019 -0.226742 0.224812
40 1 12.8549 10.1114 -2.12261 -1.75728 -0.634733 -0.267602 0.267659 -3.9428 -0.265905 0.169998 -0.354856
139 1 11.4119 8.69776 -0.545742 -0.425376 2.4171 -0.0430739 0.115592 -3.99954 -0.111258 0.429267 -0.430913
149 1 11.4267 11.5446 -0.544775 -0.904464 -0.906018 0.248794 0.185982 -3.96129 0.119294 0.306952 -0.247736
49 1 11.351 11.4979 -3.81043 -3.94296 -1.72452 -3.57845 0.148681 -3.90622 0.161122 0.556133 -0.0618821
42 1 1.60077 12.9976 -2.36035 -0.841826 -0.173751 0.753914 5.47193 -3.93115 -0.309302 0.109023 0.374179
44 1 4.30049 12.9516 -2.37704 -1.17519 0.372824 -0.13007 6.25361 -3.99786 0.0220778 0.243626 0.316613
52 1 1.58776 15.7356 -2.10812 -0.585983 1.26946 1.71295 5.30497 -3.80089 -0.294412 -0.0975419 -0.619087
54 1 4.38463 15.6552 -2.27208 0.269637 0.959657 1.9614 0.288923 -3.97809 -0.472607 0.100035 -0.146791
153 1 2.9946 14.2978 -0.626502 -3.03426 -0.361765 3.65674 0.169907 -3.90286 -0.133606 -0.281647 -0.0781496
46 1 7.13899 12.8477 -2.29911 -0.042375 -0.703018 -2.37022 5.38407 -3.90755 -0.161662 0.149811 0.067069
56 1 7.08452 15.7726 -2.359 0.19616 0.505449 -1.21975 0.277283 -3.98848 0.192888 -0.0476085 0.198672
155 1 5.76502 14.3443 -0.689037 -0.699273 2.50818 -2.71856 0.105633 -3.9349 0.385093 -0.165007 0.46764
157 1 8.53251 14.4644 -0.596648 1.77519 1.9958 -4.01974 5.34236 -3.92613 0.0580543 -0.577833 -0.051656
57 1 8.49816 14.3386 -3.74469 5.27468 2.46447 0.151665 0.564202 -3.8254 0.225171 0.409352 -0.51314
51 1 14.0057 14.3518 -3.89874 5.08997 3.62125 -2.07853 9.77855 -3.84825 0.989656 -0.283773 0.105019
151 1 14.2009 14.4155 -0.617275 -4.71089 2.01634 -0.85659 0.131575 -3.84804 -0.206488 -0.127397 -0.165877
48 1 9.93985 13.0563 -2.24341 2.86016 2.34417 0.701272 5.37092 -3.92869 0.142955 -0.328231 0.120759
50 1 12.7181 12.9904 -2.24638 0.559624 -1.36974 -0.820506 0.189995 -3.9333 0.172726 0.0678871 0.159511
58 1 9.99316 15.7186 -2.26324 -3.3381 -1.51398 5.38263 0.185923 -3.98366 -0.0463252 0.247529 -0.325324
60 1 12.7967 15.7437 -2.25705 1.53771 1.90327 -4.70531 0.116183 -3.98974 -0.30851 -0.116682 0.513527
159 1 11.3491 14.3264 -0.562262 -0.265735 -1.65506 -3.98071 0.157096 -3.94206 0.331948 0.0156337 0.0710605
62 1 1.43944 18.5161 -2.21803 0.272627 0.831543 -0.200207 0.118521 -3.89434 0.212987 -0.0172433 -0.218333
64 1 4.38586 18.6552 -2.21345 1.24428 1.0664 2.86252 5.50518 -3.90241 -0.557462 -0.360893 0.0249991
163 1 2.94245 17.1558 -0.74159 0.341627 2.40032 0.506019 0.429068 -3.92407 0.198932 0.173984 0.553702
171 1 0.141802 19.9783 -0.521434 -0.0590841 -1.37942 4.27312 0.183831 -3.99901 -0.416032 0.0932948 -0.653533
173 1 2.89555 19.9823 -0.650604 0.785649 -1.23368 2.3689 0.153371 -3.97705 -0.467091 0.0648228 0.0356939
66 1 7.24355 18.6165 -2.2143 2.75597 -4.35103 0.905848 4.97921 -3.98446 -0.71886 -0.104671 -0.070612
67 1 8.57677 17.1461 -3.87276 -4.30079 -3.56988 1.31798 0.0496293 -4.02054 -0.16973 -0.284515 0.301689
165 1 5.78304 17.093 -0.698926 1.97311 1.99329 -0.167527 0.250545 -3.92919 -0.10932 0.0401306 0.0052749
167 1 8.56005 17.078 -0.757115 1.63712 1.01306 -0.622391 4.91608 -3.96822 0.244189 0.188854 0.875874
175 1 5.70632 20.007 -0.622308 -3.42076 -2.85137 2.01629 0.139606 -3.94025 0.313764 0.358099 0.334994
177 1 8.58858 20.043 -0.398169 -1.05917 0.80188 -0.731301 5.39588 -3.901 0.155108 -0.618953 -0.924487
75 1 5.71713 19.9361 -3.88891 -4.53949 -0.9021 2.29786 6.45846 -3.92482 -0.361854 0.243845 -0.63191
65 1 5.67248 17.193 -3.84734 -1.31158 -3.63153 -0.620776 0.347739 -3.96216 0.204103 0.0522299 -0.164158
161 1 14.1852 17.2046 -0.51573 -8.06951 -0.86164 0.0732044 0.23168 -4.00536 0.0590534 -0.115806 -0.678447
68 1 9.83757 18.5862 -2.18557 1.01621 0.95189 3.77626 5.57646 -3.96156 0.431737 0.616605 0.0841528
70 1 12.7582 18.5098 -2.22969 -2.75978 -0.241021 0.901339 0.16118 -3.85434 0.194049 0.585648 0.042593
169 1 11.4357 17.1907 -0.633808 -0.050047 0.778513 1.36961 0.114821 -3.92006 -0.664686 -0.427788 -0.0410257
179 1 11.4548 19.9395 -0.540671 0.478562 4.61523 -0.247094 6.18681 -3.9574 -0.29278 -0.0277148 -0.293601
69 1 11.3235 17.1806 -3.7839 2.51938 -0.439877 2.89062 0.235777 -3.9183 0.546094 -0.299346 -0.468659
71 1 14.189 20.001 -3.77664 -3.02828 1.71166 0.793185 0.321551 -3.82153 0.0213699 -0.73922 -0.465353
61 1 14.2026 17.0274 -3.82058 -2.79754 0.110739 5.17862 0.311789 -3.87563 -0.0712246 0.0324509 -0.0524606
72 1 1.54936 21.3951 -2.31981 2.3338 -3.4761 -2.56089 5.96165 -4.00214 0.0272779 -0.289987 -0.438737
74 1 4.24289 21.3195 -2.17861 -0.775897 2.76848 -0.309503 0.395025 -4.07024 0.581149 0.0263959 -0.657352
82 1 1.5098 24.075 -2.39875 -0.197856 1.54937 -4.05427 0.307592 -3.97925 0.00979332 0.544234 0.129919
84 1 4.24694 24.1216 -2.23926 1.75243 2.83472 -4.12876 5.32628 -3.90077 0.391584 0.51992 -0.265163
181 1 0.128659 22.763 -0.689828 -3.03311 -1.67311 -0.629939 0.0491346 -3.98517 -0.314507 -0.58602 -0.255093
183 1 2.89382 22.7594 -0.735974 0.572942 -1.11899 -0.365379 0.178159 -4.03829 0.104065 0.218263 0.384964
76 1 7.14056 21.2635 -2.26776 -0.691281 0.193514 1.05787 5.58333 -3.80969 0.324803 0.645669 0.27789
86 1 7.25436 24.2668 -2.26491 -2.43118 3.29649 -1.15762 5.94013 -3.82171 -0.160719 -0.606673 -0.0898952
185 1 5.72509 22.8979 -0.730465 3.67767 -2.14848 -3.35625 0.484321 -3.96768 -0.0758627 -0.552118 0.164319
187 1 8.47118 22.692 -0.544302 -0.732136 -0.532565 -1.73565 5.43701 -3.92942 -0.152531 0.118578 -0.050527
78 1 9.92402 21.3232 -2.32805 -2.14879 -1.2859 1.20999 0.238152 -3.93512 -0.0144869 0.0705609 0.964117
80 1 12.7264 21.3466 -2.24663 -2.02506 0.894117 1.33119 0.0659346 -3.90138 0.317378 -0.101759 -0.253308
88 1 9.99398 24.1702 -2.22063 -1.34963 2.3224 -3.76156 0.21855 -3.90297 -0.560139 0.340712 0.211412
90 1 12.8226 24.1983 -2.36399 -3.32555 -1.34099 0.789537 0.189798 -3.87418 -0.229313 -0.111212 0.523847
189 1 11.404 22.6532 -0.70946 1.1462 2.87937 3.03823 0.296839 -3.85373 0.229253 0.245473 -0.218324
92 1 1.49183 27.0716 -2.27936 -1.55268 0.823337 -0.21304 0.070278 -3.88752 -0.354593 -0.361985 0.144261
93 1 2.95679 25.6072 -3.87789 -2.98218 -1.24306 2.03838 0.181992 -3.89434 0.0682351 0.357598 -0.37207
94 1 4.31233 27.0701 -2.10786 -2.42482 -0.468398 -1.32983 0.737213 -3.88795 -0.212959 -0.0599902 -0.390666
193 1 2.87926 25.4829 -0.719903 -1.0862 0.475835 1.41936 5.73309 -3.90297 0.0855613 0.409512 0.227591
5 1 5.72241 28.2956 -3.81172 2.69086 -0.906142 0.0342517 5.24871 -3.93042 0.0741298 0.0153581 -0.144839
107 1 8.62684 28.3911 -0.60355 1.62718 -2.83475 -3.52836 5.82394 -3.9964 0.0510506 0.554216 -0.211506
96 1 7.19496 27.0059 -2.27696 3.8854 -2.09663 -3.2721 0.0403445 -4.00161 -0.0823035 -0.169645 0.296913
195 1 5.7699 25.6353 -0.7036 -1.7019 -1.17403 1.74296 6.06492 -3.85186 -0.081486 -0.319479 0.544056
197 1 8.65402 25.6862 -0.646292 -0.592902 -0.620959 0.00800132 0.331141 -3.99535 -0.766701 -0.694453 0.275977
7 1 8.51249 28.4072 -3.78883 0.305773 -1.36188 3.04787 0.366213 -3.93295 0.177292 -0.251344 -0.452894
191 1 14.1954 25.5315 -0.693587 -0.0885336 -4.4938 -0.48509 0.209892 -3.86307 0.372712 0.127561 -0.494
98 1 9.85719 27.0277 -2.32498 2.60699 4.64685 0.62246 5.68232 -4.02651 1.05633 0.240064 -0.281394
100 1 12.8111 27.1397 -2.26542 0.688756 2.41483 -3.36628 0.112271 -3.90962 0.111549 -0.388159 -0.334551
199 1 11.3947 25.7747 -0.644583 -1.77748 -0.753815 0.440887 5.51645 -3.86529 0.367 -0.510995 -0.287668
99 1 11.3966 25.6653 -3.83156 -3.11862 -0.640777 0.494149 0.144932 -3.94485 -0.364488 -0.1986 0.193236
102 1 1.43258 1.58866 1.01363 7.38627 -3.29026 1.48818 0.300901 -3.99757 0.175099 0.445287 0.384582
104 1 4.40471 1.70471 0.916256 -2.62904 -0.431866 -2.50035 0.239132 -3.89269 -0.593331 -0.0472278 -0.50819
202 1 1.64591 1.56967 4.11629 2.02744 3.5456 -1.59179 4.81017 -4.01165 -1.01909 0.599496 -0.140298
203 1 2.94499 0.259696 2.56657 -1.3304 -3.48688 0.0854903 0.131869 -4.02095 0.110431 0.188707 -0.559256
204 1 4.18458 1.68524 4.2039 -0.935437 1.48785 2.63114 4.75615 -3.9604 0.881669 -0.470202 -0.037094
213 1 2.88677 3.08084 2.52961 -2.28947 -0.845795 -1.07431 0.371198 -3.97016 0.127679 -0.3831 0.0232809
106 1 7.15632 1.63052 0.899999 0.736671 -1.16949 0.0239501 0.257629 -4.01609 0.603267 0.148562 0.500228
205 1 5.64874 0.299036 2.42152 2.33469 0.995414 0.291621 4.81468 -3.86229 0.644217 -0.192535 0.669233
206 1 7.2548 1.68985 4.16235 -1.46106 -1.55409 1.7364 4.9819 -3.90754 -0.404732 -0.606912 0.10133
207 1 8.58474 0.236208 2.64838 1.31666 3.04051 1.49325 0.161539 -3.92585 0.0794874 0.00182816 -0.597467
215 1 5.78167 2.95842 2.70488 -1.49422 -2.50707 3.51511 0.54757 -3.91433 -0.169543 0.32845 -0.544042
217 1 8.60442 3.0921 2.59156 -1.80041 2.92479 -5.24384 0.123884 -3.99211 0.0557172 -0.177677 -0.0357146
201 1 14.2143 0.277593 2.6523 -0.76465 1.66164 -3.30675 0.332331 -3.96017 -0.232459 0.0345479 0.219752
211 1 14.1953 3.09372 2.71039 0.131749 -3.47244 0.658656 0.293228 -3.88706 0.0911881 -0.30077 -0.144444
108 1 9.98023 1.81548 1.0369 1.78008 -0.0382443 0.481447 5.83039 -3.85224 0.30127 -0.883457 -0.122659
110 1 12.7567 1.63776 0.93988 0.143622 0.261967 0.471904 0.167001 -3.83895 0.426125 0.0330029 0.482078
219 1 11.4042 3.08595 2.61826 2.96876 -3.6 -0.306264 0.0668133 -3.89823 0.200767 -0.137057 0.48235
112 1 1.47335 4.44722 1.10364 -2.08488 5.53109 1.88305 0.257369 -3.9093 -0.271183 0.49546 0.0550486
114 1 4.45714 4.53943 1.117 0.408107 -1.46821 1.68028 5.37332 -3.97438 -0.415071 -0.4005 -0.187207
122 1 1.5387 7.19477 1.06832 -2.178 2.10286 -1.52883 0.269834 -3.83236 -0.285984 0.172404 -0.161655
124 1 4.30599 7.3213 1.04395 -1.70609 -0.894295 0.386355 0.161824 -3.91766 -0.0377914 0.355499 0.0551816
223 1 3.00176 5.86832 2.66069 -2.9209 -3.41332 -1.19244 0.120698 -3.9598 -0.16515 -0.209794 0.0783054
116 1 7.08446 4.43511 1.0444 -0.717838 -0.661302 1.69127 5.48698 -3.93946 0.682536 0.315248 0.070313
126 1 7.33953 7.39572 1.0218 1.37971 -3.46356 0.697126 5.69909 -3.83832 -0.566937 -0.405548 -0.214538
216 1 7.15048 4.45322 4.11781 0.663868 1.20315 1.59813 0.365555 -4.00234 0.112501 0.44451 -0.0797713
225 1 5.7941 6.05956 2.56928 0.299468 -1.75276 -1.18853 5.76852 -3.90436 0.25066 -0.242243 0.210835
227 1 8.61587 5.8789 2.57634 -0.532809 -0.371899 0.126652 0.142725 -3.92712 -0.144968 -0.123789 0.132798
221 1 14.1524 5.86373 2.67579 0.796103 -1.93786 -0.0692733 0.135106 -3.9588 0.00538792 -0.0146171 -0.0285511
118 1 10.0291 4.4796 1.00466 -2.00022 0.251406 -1.34662 5.72321 -4.00894 -0.214651 -0.214213 0.0307852
120 1 12.7727 4.51546 0.936108 -2.93314 -0.0391201 0.674702 0.124878 -3.95522 0.0112635 0.0814777 0.124581
128 1 10.0124 7.32217 0.952424 -2.7644 2.28321 3.1472 5.79226 -3.99587 -0.54256 -0.200312 0.196472
130 1 12.7448 7.26336 0.958765 -1.8326 -3.86476 -3.53257 0.175303 -3.96752 0.244549 0.198478 0.000498088
218 1 9.92391 4.44006 4.23849 2.54663 2.02038 1.45237 0.0902236 -3.97733 0.566712 -0.200842 -0.162652
220 1 12.7806 4.44772 4.22969 -0.879614 -1.25736 1.20844 0.0664637 -3.85108 0.130509 -0.256247 0.3119
229 1 11.2652 5.91426 2.65411 0.58398 1.74186 -1.1864 5.40728 -3.97633 0.522568 -0.141867 -0.233529
230 1 12.8446 7.35538 4.14941 2.31232 0.678649 1.21522 0.284242 -3.93483 -0.549389 -0.831105 0.478134
132 1 1.49806 10.2454 0.916125 0.926583 1.77752 2.20689 0.211102 -3.9367 -0.146153 -0.256312 0.403678
134 1 4.33421 10.2257 1.0632 -1.95039 -2.01599 -1.69927 5.57733 -3.89954 0.212311 -0.766071 0.257088
233 1 2.86938 8.7146 2.67857 -0.683116 0.194601 5.31636 0.149896 -3.83609 0.572809 0.139072 0.0475217
234 1 4.30212 10.2221 4.23627 -0.621179 0.157015 -0.123602 5.646 -3.91216 0.643904 -0.62147 0.163729
241 1 0.149986 11.5192 2.57081 -2.41095 0.904273 -0.0212207 0.0968187 -3.97848 -0.19543 -0.206985 0.154038
243 1 2.87755 11.525 2.51418 -0.234391 0.744033 0.670144 0.268531 -3.9524 -0.0915594 -0.24568 0.252239
136 1 7.34978 10.1327 1.03891 0.629619 0.98562 1.20116 5.18787 -4.00239 -0.637604 0.132946 -0.282021
235 1 5.87066 8.81598 2.53989 0.465343 -1.43871 1.4062 0.406196 -3.93487 -0.390159 -0.16359 0.345254
237 1 8.63235 8.75913 2.77936 2.56455 0.935182 0.542097 0.413663 -4.0373 -0.361667 0.177872 -0.662508
245 1 5.87987 11.5851 2.60931 0.240801 -0.541356 -0.243051 0.426592 -3.92922 -0.662137 0.079195 0.254302
247 1 8.6244 11.498 2.72665 0.432483 -3.51449 2.45946 0.211112 -4.01997 0.0115991 0.623557 -0.181154
231 1 14.2058 8.74973 2.56971 -0.187028 1.52542 1.17023 0.0886778 -3.96867 0.601292 -0.255215 -0.162229
138 1 9.92992 10.142 0.966896 -1.64946 -2.47072 4.24093 5.4518 -4.02485 0.616565 -0.140278 0.516576
140 1 12.8378 10.2224 0.975679 -3.06779 0.590986 0.953237 0.205276 -3.98364 -0.320672 -0.389554 -0.0661308
239 1 11.364 8.67474 2.57763 1.07823 -1.10089 5.00007 0.104881 -3.9669 0.508594 0.240931 0.106383
240 1 12.788 10.0949 4.07411 0.473313 1.12475 -2.36237 10.5173 -3.88193 0.351262 0.293379 0.481237
249 1 11.3994 11.5636 2.71506 0.00818624 4.09037 -1.73351 0.274501 -3.96363 -0.108434 -0.271011 -0.451026
142 1 1.52181 13.0509 1.0863 -1.28477 -4.17543 2.9049 0.380735 -3.95538 -0.185754 -0.100615 -0.0196797
144 1 4.29805 12.8216 0.904964 1.81958 -2.20134 0.0142737 5.07416 -3.91818 0.319575 0.873768 0.42388
152 1 1.51339 15.8576 1.06021 -0.669006 2.84052 -0.820189 5.57656 -4.03751 0.175833 -0.447663 -0.52978
154 1 4.25725 15.7179 0.96719 2.46855 -1.35996 -1.82568 0.312653 -3.92079 0.589729 0.434262 -0.0212423
242 1 1.53992 12.9165 4.20293 0.280113 3.4737 -1.1283 0.131164 -3.98464 0.0938224 -0.0386552 -0.319102
244 1 4.24982 12.7782 4.23197 2.14938 -0.0921022 -0.749942 5.58382 -3.91889 0.304268 0.486176 -0.00284744
251 1 0.128475 14.4623 2.67833 2.68999 -0.1114 0.508103 0.236997 -3.93368 -0.135205 -0.255569 -0.0927246
252 1 1.63436 15.7834 4.1074 -3.12021 0.366244 0.726554 4.79832 -3.89073 0.0847637 -0.269623 0.370722
253 1 3.02926 14.3678 2.65081 0.643288 -2.70259 -2.00417 0.371288 -3.93238 -0.2894 -0.309789 -0.182182
146 1 7.13468 12.9886 0.982863 1.04428 0.1527 -2.62964 0.134319 -3.82244 0.825634 -0.0892653 -0.0572549
156 1 7.1141 15.8395 1.01223 -5.45427 -4.00032 2.42238 0.305796 -3.94809 0.44691 -0.275679 0.0649454
255 1 5.79332 14.3612 2.5604 0.949383 2.2935 -3.25327 6.21539 -3.91799 -0.618206 -0.118815 0.253999
256 1 7.19239 15.8423 4.13099 -0.861153 0.781607 -0.146585 0.411249 -3.99128 0.50076 -0.569346 -0.0226096
257 1 8.60857 14.4287 2.66876 -2.00567 3.54744 2.76289 0.077289 -3.91477 -0.463106 -0.404478 -0.0400538
148 1 10.0789 12.8625 1.08902 2.53119 -0.204599 1.59625 5.41221 -3.90506 -0.299113 0.325945 -0.0767746
150 1 12.8144 12.9078 1.05208 0.842405 -1.04171 -0.584461 0.166981 -3.99844 0.322743 0.146469 -0.060738
158 1 10.0599 15.8093 1.07044 1.95172 -4.28031 -2.67566 0.273545 -3.87564 -0.338324 -0.100421 -0.120171
160 1 12.7974 15.8078 0.961999 2.05154 2.79304 -0.0709358 0.213698 -3.92734 0.105666 -0.223404 0.566779
250 1 12.9049 12.9601 4.18031 1.45982 -1.9964 -1.75047 0.289355 -3.96505 -0.409399 -0.0274294 -0.00835617
259 1 11.5154 14.2983 2.60762 2.36546 0.76793 -0.871017 0.271548 -3.97981 -0.454651 0.696384 -0.344244
162 1 1.61205 18.4318 0.996766 0.103087 0.473685 0.329909 5.30732 -3.93448 -0.366675 0.395178 -0.0704228
164 1 4.41893 18.6151 0.873114 -0.211573 3.22505 -5.20284 0.374351 -3.93885 -0.41914 -0.388367 0.311618
262 1 1.64124 18.6991 4.21968 -1.57751 0.894061 -4.43727 5.308 -3.96295 -0.626755 -0.619728 0.157988
263 1 3.02324 17.1738 2.59316 -2.37006 -0.133771 0.32695 0.280384 -3.98755 -0.00126341 0.0437966 0.365307
271 1 0.239882 19.931 2.49379 -2.9132 -1.24747 -1.34561 0.633039 -3.95723 0.0776917 0.316333 0.275582
273 1 3.06119 20.0027 2.61058 0.40391 -0.0741893 3.19324 5.68781 -3.9344 -0.136039 0.0494872 -0.182119
166 1 7.16241 18.5363 0.976941 0.698547 0.150344 -2.49931 0.19843 -3.95862 0.0271684 0.01277 0.0247804
265 1 5.71847 17.1429 2.73979 -1.6126 -0.82668 -3.54668 4.85469 -3.94465 -0.238077 -0.06388 -0.38769
266 1 7.25348 18.553 4.13234 1.95445 3.37989 -0.145865 5.17502 -3.86866 -0.323286 -0.150417 -0.0189391
267 1 8.63962 17.1234 2.52967 1.62128 1.24999 -1.44411 0.283716 -3.92978 -0.0444366 0.403639 0.199585
275 1 5.66392 19.9514 2.61738 0.0670137 -1.38317 -3.87798 5.29788 -3.93825 0.224234 0.163961 0.195347
277 1 8.52362 20.0544 2.6058 0.898333 -0.0775842 -0.479706 4.92565 -3.96078 0.595197 0.0882832 0.0611687
261 1 14.1769 17.1487 2.69329 3.22524 -0.724689 1.23685 5.20825 -3.98526 0.302324 0.474684 -0.0292356
168 1 9.9888 18.5753 1.02319 -3.61858 0.233632 -1.83299 0.231412 -3.90361 0.044275 -0.307164 -0.0653787
170 1 12.8038 18.6463 1.1376 0.900172 4.64776 -2.52583 0.360596 -3.98469 0.0920782 -0.712032 -0.4439
269 1 11.4148 17.1891 2.8076 1.22914 3.37173 -1.05524 0.439105 -3.94366 0.129487 0.203069 -1.0572
270 1 12.909 18.7314 4.22536 -1.75346 -1.91228 -0.862528 5.6152 -3.89794 -0.294684 -0.0277693 0.627127
279 1 11.3598 20.0486 2.5822 2.0114 -4.45816 0.994583 0.288513 -3.87532 -0.54691 -0.217781 0.450111
172 1 1.47279 21.4257 1.02653 2.33301 -0.225112 2.95214 0.290182 -3.95596 0.438017 -0.215688 -0.19281
174 1 4.32705 21.4567 0.861193 -1.27528 -0.710527 -1.51037 0.29743 -3.95304 0.0528617 -0.0728557 0.203298
182 1 1.5749 24.1646 0.975183 -0.784188 -3.79054 -2.16947 0.0660273 -3.96375 -0.30064 -0.139522 0.409457
184 1 4.3073 24.238 0.929145 -0.587332 0.565944 -1.32797 0.148343 -3.95806 0.0659043 -0.48254 -0.218845
272 1 1.50093 21.4332 4.13863 -1.3891 0.701157 2.48604 0.403154 -4.01369 -0.0366015 -0.334747 0.147095
281 1 0.183488 22.7914 2.67505 -2.74019 0.616667 0.622568 0.173319 -3.92014 -0.0644961 0.558309 -0.160926
283 1 2.92311 22.8102 2.69423 1.18139 2.06881 4.32688 0.197453 -3.88551 0.349096 0.299956 -0.295401
176 1 7.06694 21.3141 1.04886 -3.95137 -1.5893 -1.01736 0.404152 -3.98684 -0.0609396 -0.0161269 -0.51072
186 1 7.17879 24.1447 0.875633 2.78581 2.06017 1.88695 0.204184 -3.87643 0.299289 0.423574 0.0452857
285 1 5.85589 22.7635 2.47188 1.31531 1.02106 -0.50399 0.587643 -3.87796 -0.744354 0.411896 0.776154
287 1 8.6565 22.7436 2.52133 2.42 3.87829 -0.705154 11.0783 -4.02937 -0.637889 0.0935634 0.403726
178 1 9.99102 21.4199 0.934233 -1.13098 -1.50552 3.15931 0.265343 -4.01443 0.493613 -0.428522 0.129387
180 1 12.8404 21.4228 1.07669 -0.471497 0.0061306 0.269058 0.322861 -4.06092 0.104154 0.229779 0.225928
188 1 10.0407 24.0693 0.820392 -1.30348 -2.27273 0.479064 4.97609 -3.85938 -0.364745 0.732232 0.348817
190 1 12.925 24.1389 0.945272 -1.55903 -2.12372 1.13416 5.75244 -3.84129 -0.824446 0.354402 0.581472
280 1 12.8739 21.3633 4.15374 1.61778 1.13426 1.57654 5.7742 -3.96314 -0.0280052 -0.16459 -0.0914396
289 1 11.3072 22.8471 2.61157 -3.96248 4.07387 -0.259648 5.24339 -3.96865 0.100019 -0.231515 0.343572
290 1 12.8777 24.1232 4.21389 1.06046 -1.98762 3.24564 0.242924 -3.96809 -0.512618 0.169635 0.117035
192 1 1.54582 26.9795 1.01043 0.832332 -0.820942 0.130328 5.40465 -3.95775 -0.345536 -0.1154 -0.0787352
194 1 4.33343 27.1078 0.9489 -1.61671 -3.20912 1.28134 0.25672 -3.92936 -0.435062 -0.7475 -0.212882
291 1 0.123486 25.6243 2.73767 -1.91934 -0.395923 -0.219087 0.424546 -3.90333 0.162466 -0.299617 -0.449202
292 1 1.58125 27.1181 4.12312 0.521729 -0.104332 -0.21211 5.48615 -3.99413 -0.182342 -0.171954 0.0467878
293 1 3.0799 25.6086 2.58156 2.80973 1.17343 -0.298043 6.03012 -3.88591 -0.840574 -0.188802 0.576746
294 1 4.2495 27.1204 4.2059 -1.17778 2.9951 1.58236 0.257538 -3.93356 0.354126 -0.131027 -0.18757
196 1 7.3038 27.0489 1.10093 3.37805 -2.98627 4.17109 4.99811 -3.89258 -0.98626 0.0639374 -0.505716
295 1 5.73558 25.636 2.55918 2.43808 0.681994 -1.51506 5.33073 -3.93595 0.453537 0.261213 0.412542
296 1 7.17419 27.0665 4.1122 0.309675 6.50899 -1.89168 0.268358 -3.88201 0.196661 0.51901 -0.274719
297 1 8.56397 25.5256 2.60904 -0.134748 1.31643 -3.31811 0.365646 -3.91223 0.65231 -0.0908935 -0.250745
209 1 11.3537 28.3011 2.68095 -0.393176 -1.47754 0.78913 6.07969 -3.80801 0.511784 0.30694 -0.565593
198 1 9.95313 27.0869 0.882388 0.689763 -0.698924 -1.31982 5.2861 -3.82372 0.513358 -0.0431063 0.953638
200 1 13.0099 27.0067 0.94022 5.30296 -0.270392 0.651806 5.67812 -3.85852 -0.725008 0.0246281 0.11279
299 1 11.357 25.6421 2.65472 0.613569 6.18239 1.53807 6.42161 -3.80654 0.432514 -0.447534 -0.17288
301 1 0.190771 0.330155 5.7218 0.5675 -0.168496 -2.46061 5.05552 -3.99638 0.00782163 -0.384455 0.319077
302 1 1.52998 1.64637 7.62645 -1.42736 -3.15682 0.972455 0.330207 -3.9479 -0.0665466 -0.45745 0.0436762
303 1 2.87995 0.257353 5.88703 0.341516 -0.0404191 -2.60214 0.191704 -4.01154 -0.00589269 -0.24665 -0.19084
304 1 4.29008 1.6221 7.45605 -4.04083 -0.468429 4.02966 0.162497 -3.88123 0.322808 0.43504 0.49674
311 1 0.149724 2.85167 5.87812 -1.74976 0.28104 0.763369 5.34892 -3.86357 -0.23676 1.05956 -0.275059
313 1 2.89377 2.99568 5.75641 0.148637 -0.416692 -0.495992 5.46673 -3.86807 0.109656 0.0168333 0.485347
305 1 5.63949 0.272746 5.8824 -2.6762 0.601797 -1.53878 5.3879 -3.82269 0.730227 0.198853 -0.690828
306 1 7.16827 1.7968 7.48758 -0.497955 1.38302 -0.554626 5.98223 -3.87827 -0.600507 -0.958559 -0.00300288
307 1 8.54451 0.339894 5.93005 2.06573 -1.47317 -0.377265 0.341622 -3.95538 -0.432414 -0.636437 -0.147028
315 1 5.88369 2.98404 5.79261 0.746495 3.22544 0.384377 5.45346 -3.96086 -0.815984 0.708195 0.0649038
317 1 8.5575 3.091 5.79397 0.877774 1.33708 0.284955 0.0799423 -4.07938 -0.273892 -0.135641 0.0229914
208 1 9.93587 1.5992 4.25817 -2.11946 3.54369 -4.60115 0.124767 -4.04613 0.200734 0.262173 0.111836
210 1 12.7168 1.62492 4.28866 1.93469 -2.84729 3.21644 0.363003 -3.91637 0.0605049 -0.0787829 -0.0194172
308 1 9.85407 1.73124 7.44111 -3.32365 0.641461 0.348771 0.20985 -3.94734 0.762846 -0.119092 0.179424
309 1 11.427 0.271834 5.9278 2.261 -0.338001 1.59023 0.162218 -3.92848 -0.33137 0.0349117 -0.406792
310 1 12.8338 1.67333 7.46394 -2.12593 2.9352 -1.91821 0.177915 -3.92651 -0.423003 -0.677491 0.329011
319 1 11.2832 3.0542 5.88633 1.40137 -1.12676 -0.599603 0.111564 -3.98224 0.605945 -0.0430993 -0.260502
212 1 1.5107 4.56417 4.26481 1.71349 1.1107 -0.37813 5.59283 -3.95569 0.134629 -0.554121 -0.0453267
214 1 4.35594 4.34938 4.28429 -3.60792 0.888428 1.10906 5.09462 -3.91683 0.0588769 0.831016 -0.585851
222 1 1.54559 7.23945 4.24175 2.60978 -1.28947 -2.65909 5.58632 -3.97104 -0.529533 0.211834 -0.0213437
224 1 4.45542 7.31972 4.28033 2.28078 -2.16034 3.83898 0.310018 -3.91232 -0.45078 0.390764 -0.723224
312 1 1.51633 4.46751 7.4164 6.58074 -1.87872 -2.48992 0.256062 -3.94443 0.181379 -0.302897 -0.224127
314 1 4.38482 4.47065 7.53974 1.38421 -0.500902 1.94911 5.95346 -3.84944 -0.271175 -0.269968 -0.353035
322 1 1.50912 7.24612 7.40159 2.77664 -2.04083 2.3912 0.114556 -3.92232 0.0920123 -0.233084 0.218544
323 1 3.05231 5.91185 5.80767 -1.31866 2.39502 -0.268551 0.268528 -3.93391 -0.474987 -0.0778168 0.203073
324 1 4.3708 7.29584 7.43126 1.4459 0.563605 -1.51929 0.133334 -3.95368 -0.0785329 -0.0328444 0.112613
226 1 7.22143 7.27669 4.24473 -1.92098 2.73055 -2.00716 0.113316 -3.98021 0.0403751 0.329797 0.492559
316 1 7.10763 4.57462 7.47212 2.31643 -3.52172 -0.258836 0.364709 -3.98188 0.0784622 -1.03714 0.0605387
325 1 5.76431 5.8264 5.74584 -2.43851 2.57701 -2.10025 0.274134 -3.95531 0.297421 -0.196821 0.439072
326 1 7.19795 7.24786 7.37937 -1.71798 -0.00966545 0.572563 0.27611 -4.0103 -0.274996 0.259626 -0.246248
327 1 8.55272 5.78657 5.9617 -1.12912 -0.410511 1.0442 0.566803 -3.93387 0.114891 0.440785 -0.6419
228 1 9.92162 7.27115 4.32948 0.0778168 -0.255412 1.79302 0.272376 -3.95426 0.290394 0.335928 0.0828956
321 1 14.1448 5.82456 5.84943 4.06995 0.134137 -0.309495 0.201958 -3.93486 0.462084 0.415647 -0.498256
318 1 9.98504 4.43593 7.43539 1.75132 -4.65897 3.2673 0.0907012 -3.98356 -0.0981741 0.418906 0.390835
320 1 12.7757 4.48205 7.44262 1.89733 -3.11783 2.82706 0.189402 -3.91117 0.239181 -0.546609 -0.226121
328 1 10.0129 7.28399 7.30966 2.65819 -0.927283 -2.4793 0.547139 -3.93524 0.107201 0.202686 0.354646
329 1 11.4291 5.87426 5.83108 1.9858 -1.38951 -0.786356 0.0767548 -3.95624 0.0932289 -0.279171 -0.259917
330 1 12.8425 7.28945 7.46537 -1.97867 0.420953 -1.07444 0.0975484 -4.01511 -0.256029 -0.233143 0.421203
232 1 1.56015 10.1641 4.25941 2.12226 0.0705619 -0.681687 0.223895 -3.9931 -0.220884 0.0380409 -0.633681