ITEM: TIMESTEP
198500
ITEM: NUMBER OF ATOMS
2000
ITEM: BOX BOUNDS pp pp pp
1.0838953229856951e-01 1.4221610467701321e+01
2.1677906459713903e-01 2.8443220935402643e+01
-5.1693905821606148e+00 6.2489390582160176e+01
ITEM: ATOMS id type x y z vx vy vz c_csym c_peratom fx fy fz
2 1 1.62332 1.66863 -3.46928 -0.282889 -3.25185 -0.636516 0.280589 -3.90736 -0.706286 -0.339474 -0.285401
4 1 4.35789 1.61575 -3.55141 0.990702 -5.33602 3.45801 6.17718 -3.87494 0.0226248 0.205518 0.484385
11 1 0.115605 3.14255 -5.11474 0.617832 -0.194419 3.50607 0.266067 -3.81493 -0.279198 -0.0414007 -0.427453
101 1 0.126621 0.284403 -1.81731 -1.57173 1.46596 2.1275 0.154299 -3.94748 0.0691839 -0.186164 0.18624
103 1 2.85007 0.270771 -1.74947 0.287695 0.367304 -1.8153 0.254214 -3.79179 0.392421 0.277957 0.0535867
111 1 0.168447 3.08626 -1.7872 -2.2925 0.592843 0.179022 6.36773 -3.88528 -0.329907 0.0155917 0.0909965
113 1 2.87763 3.13123 -1.72404 -1.71434 2.42111 -1.1208 11.7748 -3.84991 0.155854 -0.155932 -0.035232
13 1 2.94284 3.10367 -5.14774 -0.0706192 -1.95523 0.774801 0.0781511 -3.84643 -0.26462 0.370997 0.277913
6 1 7.17995 1.58532 -3.47697 -1.53139 -1.81767 -2.43971 0.239018 -3.87394 -0.323168 0.706742 0.14098
17 1 8.63608 3.25517 -5.09062 -1.24355 -0.0988133 -0.860341 10.3234 -3.86979 -0.36545 -0.717974 -0.314583
105 1 5.90739 0.22905 -1.78555 0.812795 -1.48127 -4.16198 5.835 -3.87707 -0.389333 -0.0456407 -0.215979
115 1 5.79048 3.13764 -1.80232 -0.932742 0.818202 0.0439582 0.188837 -3.86701 -0.13384 -0.248169 0.355883
117 1 8.60233 3.08029 -1.71087 0.475293 0.415756 -1.302 0.189163 -3.84759 -0.220864 -0.0821821 -0.561005
15 1 5.86915 3.09703 -5.10439 -1.1078 -3.23994 -0.243916 0.312577 -3.80037 -0.311193 0.300597 0.11637
8 1 9.98472 1.71462 -3.60818 1.02028 2.64764 -1.65962 5.5997 -3.86854 -0.287772 -0.160023 0.347771
9 1 11.3244 0.287262 -5.05518 -0.628437 1.37052 0.162777 5.83373 -3.86939 0.587637 0.0545269 -0.435657
10 1 12.8557 1.68831 -3.55081 -0.261261 2.58464 0.684826 0.155979 -3.85648 -0.577926 0.00449147 0.360244
109 1 11.3921 0.306018 -1.81958 4.17545 -4.26001 3.01885 6.93022 -3.85247 -0.329389 -0.19431 -0.0957763
119 1 11.4562 3.11085 -1.88111 -0.877516 0.612354 1.13148 0.17147 -3.89657 -0.0279005 -0.529729 0.175301
12 1 1.52356 4.6359 -3.58556 1.18436 1.40208 1.05812 6.1347 -3.85215 -0.0696849 -0.540353 0.49024
14 1 4.34915 4.42365 -3.36351 -0.761965 1.11821 -1.53086 0.289418 -3.91471 0.1685 0.200114 -0.505821
22 1 1.54026 7.32431 -3.55454 0.529166 1.27637 -0.648244 6.17956 -3.83287 0.0235682 -0.0147112 0.833696
23 1 3.01689 5.92797 -5.13807 4.21453 0.286138 -0.65637 6.0366 -3.84324 -0.38496 0.118041 -0.400163
24 1 4.35552 7.36387 -3.47498 0.718611 1.41969 0.425215 0.11819 -3.86625 -0.0770467 -0.0956305 0.11475
121 1 0.132435 5.82793 -1.79509 -2.35864 3.10392 -0.471262 0.202858 -3.85024 -0.152908 0.0479514 -0.0525406
123 1 3.01618 5.86763 -1.68713 1.00139 1.8653 -1.24788 6.14927 -3.85095 -0.131116 0.286451 -0.195793
16 1 7.14135 4.5226 -3.38754 0.603539 0.154603 0.133915 5.62305 -3.91612 -0.0639376 -0.455559 -0.087405
25 1 5.70759 5.92495 -5.03572 -0.827089 1.1553 2.35682 5.32176 -3.90346 0.518697 -0.482784 -0.835166
26 1 7.1412 7.16975 -3.53114 -0.0337704 2.62343 0.778117 5.52369 -3.81963 0.0749664 0.783876 0.441822
125 1 5.74127 5.95799 -1.74598 -0.136011 -2.75282 -0.154075 6.07716 -3.97487 0.1858 -0.138422 0.0133837
127 1 8.57446 5.88387 -1.89947 -1.51658 -3.67076 0.00771245 0.441452 -3.83249 -0.0657548 0.402684 0.644142
18 1 10.0587 4.47472 -3.47331 2.01504 1.15568 0.108705 0.229157 -3.9058 0.0821051 0.211892 0.11294
20 1 12.7939 4.54238 -3.51144 -0.022531 3.00342 -1.17168 0.0695237 -3.95347 0.0951765 -0.0561918 0.12551
28 1 10.1169 7.35391 -3.37219 1.08986 -1.21663 1.80841 5.8206 -3.876 -0.334618 0.0493365 0.0614641
29 1 11.4127 5.98723 -5.14915 1.3822 1.47477 -0.555896 0.0553155 -3.90543 -0.062759 -0.373074 -0.297796
30 1 12.8531 7.28188 -3.40438 0.362699 -0.519128 0.486825 0.142449 -3.91068 -0.306605 0.451833 0.158291
129 1 11.3642 5.90889 -1.73788 -0.995542 1.01394 2.2528 0.118576 -3.9703 0.508481 0.106218 -0.4248
32 1 1.48279 10.1923 -3.55168 2.66336 -1.18469 0.933482 5.56213 -3.96071 0.344222 -0.312506 0.688592
34 1 4.32744 10.195 -3.55064 -3.42019 -1.92301 1.41173 6.91079 -3.8679 0.0576259 -0.354785 0.471151
43 1 2.92107 11.628 -5.14393 2.17426 0.782241 3.50485 0.132007 -3.9892 0.151503 -0.615519 -0.471555
133 1 2.87707 8.77788 -1.7572 -1.44944 0.975575 0.710255 0.0962527 -3.78388 0.519288 -0.27113 0.236344
141 1 0.146359 11.6297 -1.88707 -2.20193 -7.04944 -1.51669 0.372605 -3.91767 -0.132887 0.0519538 0.318649
143 1 2.92416 11.521 -1.784 -0.572232 1.1909 1.77002 0.175373 -3.95189 0.033257 -0.200955 -0.383485
36 1 7.17897 10.1662 -3.42128 0.10168 3.47717 0.174941 5.84453 -3.81125 -0.329205 -0.424641 -0.070106
47 1 8.63625 11.4798 -5.05209 -1.46078 2.66256 0.234251 0.317659 -3.88114 -0.53983 0.0495435 -0.70292
135 1 5.71447 8.72482 -1.67055 -0.880733 0.590278 -0.109653 6.04763 -3.80725 0.496974 -0.306337 -0.187575
137 1 8.61908 8.74613 -1.85761 -4.19951 1.4167 -2.48788 0.407287 -3.89186 -0.272284 -0.0919747 -0.17905
145 1 5.78797 11.4174 -1.78105 0.913579 -3.10787 0.676852 6.08042 -3.84399 0.0669773 0.647674 0.301191
147 1 8.63173 11.5707 -1.66423 -2.52053 -2.66134 -2.016 0.215697 -3.89893 -0.68822 0.137133 -0.744749
37 1 8.64539 8.6808 -5.01815 -0.410704 1.96136 0.795798 5.74452 -3.92585 -0.193964 0.495966 -0.0456688
41 1 14.1834 11.5242 -5.05655 -1.35835 -5.95404 3.83557 0.278738 -3.92647 0.0664719 0.523902 -0.122271
131 1 14.189 8.78043 -1.64678 -1.59748 2.05417 3.03081 6.15144 -3.80691 0.238066 -0.0605451 -0.0404315
38 1 10.1092 10.2499 -3.3434 0.647054 3.02786 -2.05404 0.509429 -3.91537 -0.808627 -0.547467 0.20416
39 1 11.3428 8.78317 -5.10975 2.80774 -0.622395 -1.00191 5.54647 -3.89136 0.164146 -0.259717 -0.0724715
40 1 12.8549 10.1114 -3.32349 -1.75728 -0.634733 -0.267602 6.38928 -3.88765 -0.36222 -0.150373 -0.372425
139 1 11.4119 8.69776 -1.68511 -0.425376 2.4171 -0.0430739 0.119189 -3.97057 0.042824 0.439464 -0.563112
149 1 11.4267 11.5446 -1.6841 -0.904464 -0.906018 0.248794 0.191627 -3.92824 0.184826 0.424736 -0.169472
49 1 11.351 11.4979 -5.07716 -3.94296 -1.72452 -3.57845 0.151281 -3.86438 0.274421 0.315469 -0.454953
42 1 1.60077 12.9976 -3.57051 -0.841826 -0.173751 0.753914 5.67452 -3.88187 -0.547677 0.410086 0.473523
44 1 4.30049 12.9516 -3.58785 -1.17519 0.372824 -0.13007 6.45619 -3.93994 0.184941 0.0374443 0.221374
52 1 1.58776 15.7356 -3.30843 -0.585983 1.26946 1.71295 5.43062 -3.73461 -0.569876 0.283297 -0.716994
54 1 4.38463 15.6552 -3.47879 0.269637 0.959657 1.9614 6.12065 -3.93657 -0.509666 0.0968657 -0.217077
153 1 2.9946 14.2978 -1.76902 -3.03426 -0.361765 3.65674 6.15635 -3.86604 -0.300579 -0.164813 -0.0815108
46 1 7.13899 12.8477 -3.50688 -0.042375 -0.703018 -2.37022 5.53685 -3.86025 -0.0996516 0.576129 0.140624
56 1 7.08452 15.7726 -3.5691 0.19616 0.505449 -1.21975 0.29174 -3.95361 0.287358 0.0501468 0.101636
155 1 5.76502 14.3443 -1.83399 -0.699273 2.50818 -2.71856 0.106903 -3.88292 0.347546 -0.199473 0.53031
157 1 8.53251 14.4644 -1.738 1.77519 1.9958 -4.01974 11.1253 -3.85679 0.0415271 -0.248748 -0.205801
57 1 8.49816 14.3386 -5.00885 5.27468 2.46447 0.151665 0.601173 -3.76806 -0.0892366 -0.0112504 -1.01346
51 1 14.0057 14.3518 -5.16892 5.08997 3.62125 -2.07853 10.129 -3.79726 1.33771 -0.0484978 -0.23884
151 1 14.2009 14.4155 -1.75943 -4.71089 2.01634 -0.85659 0.136754 -3.79395 0.204223 -0.553619 0.278493
48 1 9.93985 13.0563 -3.44901 2.86016 2.34417 0.701272 5.56729 -3.88628 0.541631 -0.381269 0.20125
50 1 12.7181 12.9904 -3.45209 0.559624 -1.36974 -0.820506 0.196775 -3.88749 -0.128251 -0.391211 0.172767
58 1 9.99316 15.7186 -3.46961 -3.3381 -1.51398 5.38263 5.66251 -3.9513 0.246419 0.591229 0.197774
60 1 12.7967 15.7437 -3.46317 1.53771 1.90327 -4.70531 0.118595 -3.9598 -0.0870531 -0.175785 0.570497
159 1 11.3491 14.3264 -1.70227 -0.265735 -1.65506 -3.98071 0.160012 -3.89721 0.251044 0.114741 0.0156627
62 1 1.43944 18.5161 -3.42263 0.272627 0.831543 -0.200207 0.119908 -3.84314 0.0321268 -0.0739146 -0.460478
64 1 4.38586 18.6552 -3.41788 1.24428 1.0664 2.86252 5.70224 -3.86289 -0.301488 -0.425599 -0.138636
163 1 2.94245 17.1558 -1.8886 0.341627 2.40032 0.506019 0.450358 -3.88077 0.288784 0.250779 0.80017
171 1 0.141802 19.9783 -1.65985 -0.0590841 -1.37942 4.27312 0.191598 -3.93815 -0.149337 0.165371 -0.468569
173 1 2.89555 19.9823 -1.79406 0.785649 -1.23368 2.3689 0.157474 -3.93487 -0.175049 -0.182524 -0.0222675
66 1 7.24355 18.6165 -3.41876 2.75597 -4.35103 0.905848 5.14642 -3.9212 -0.405569 0.0624636 -0.308795
67 1 8.57677 17.1461 -5.14192 -4.30079 -3.56988 1.31798 0.0496721 -3.97801 -0.43316 -0.0155986 0.307609
165 1 5.78304 17.093 -1.84427 1.97311 1.99329 -0.167527 0.256884 -3.89288 -0.295632 -0.0642822 0.391001
167 1 8.56005 17.078 -1.90473 1.63712 1.01306 -0.622391 5.06826 -3.90582 -0.10096 0.126846 0.620322
175 1 5.70632 20.007 -1.76466 -3.42076 -2.85137 2.01629 0.142989 -3.91136 0.607259 0.323258 -0.177499
177 1 8.58858 20.043 -1.53178 -1.05917 0.80188 -0.731301 5.56904 -3.83932 -0.248183 -0.48175 -0.819672
75 1 5.71713 19.9361 -5.15869 -4.53949 -0.9021 2.29786 6.64203 -3.87014 -0.117044 0.42246 -0.285786
65 1 5.67248 17.193 -5.1155 -1.31158 -3.63153 -0.620776 0.356922 -3.90449 0.322991 -0.0859156 -0.00266095
161 1 14.1852 17.2046 -1.65392 -8.06951 -0.86164 0.0732044 0.241666 -3.95715 0.105037 0.148184 -0.320356
68 1 9.83757 18.5862 -3.38891 1.01621 0.95189 3.77626 5.77351 -3.89987 0.652002 0.247254 -0.377997
70 1 12.7582 18.5098 -3.43475 -2.75978 -0.241021 0.901339 0.16407 -3.80946 -0.000752989 0.263509 0.0112579
169 1 11.4357 17.1907 -1.77661 -0.050047 0.778513 1.36961 0.117604 -3.87634 -0.699796 -0.252101 0.0372021
179 1 11.4548 19.9395 -1.67984 0.478562 4.61523 -0.247094 6.37337 -3.90715 -0.0352894 0.331472 -0.225686
69 1 11.3235 17.1806 -5.0496 2.51938 -0.439877 2.89062 5.90088 -3.86644 0.59587 -0.0223513 -0.618762
71 1 14.189 20.001 -5.04205 -3.02828 1.71166 0.793185 0.333566 -3.77799 -0.0804221 -0.50262 -0.626303
61 1 14.2026 17.0274 -5.08771 -2.79754 0.110739 5.17862 5.45611 -3.8178 -0.00388202 0.386914 -0.404162
72 1 1.54936 21.3951 -3.52839 2.3338 -3.4761 -2.56089 6.16462 -3.95579 -0.487627 -0.143417 -0.327283
74 1 4.24289 21.3195 -3.38168 -0.775897 2.76848 -0.309503 5.41073 -4.02584 0.355197 0.136718 -0.822243
82 1 1.5098 24.075 -3.61041 -0.197856 1.54937 -4.05427 5.87675 -3.92593 0.135843 0.204891 0.00310977
84 1 4.24694 24.1216 -3.4447 1.75243 2.83472 -4.12876 5.47645 -3.85982 0.547944 0.141813 -0.437286
181 1 0.128659 22.763 -1.83481 -3.03311 -1.67311 -0.629939 0.0504741 -3.93535 0.00382822 -0.113516 -0.0192776
183 1 2.89382 22.7594 -1.88276 0.572942 -1.11899 -0.365379 0.190107 -4.01479 -0.438443 0.495248 0.329638
76 1 7.14056 21.2635 -3.47431 -0.691281 0.193514 1.05787 5.79187 -3.75086 -0.0523869 0.459249 0.324492
86 1 7.25436 24.2668 -3.47134 -2.43118 3.29649 -1.15762 12.0035 -3.75871 -0.218402 -0.47463 -0.318328
185 1 5.72509 22.8979 -1.87704 3.67767 -2.14848 -3.35625 5.85652 -3.92713 0.273629 -0.740166 0.46089
187 1 8.47118 22.692 -1.68361 -0.732136 -0.532565 -1.73565 5.65963 -3.87345 0.0475181 0.318351 -0.639226
78 1 9.92402 21.3232 -3.53695 -2.14879 -1.2859 1.20999 5.96393 -3.872 -0.352416 -0.0281781 0.789416
80 1 12.7264 21.3466 -3.45235 -2.02506 0.894117 1.33119 0.0670802 -3.8577 0.344797 0.349759 -0.119751
88 1 9.99398 24.1702 -3.42534 -1.34963 2.3224 -3.76156 6.26102 -3.82769 -0.283006 0.134102 -0.370404
90 1 12.8226 24.1983 -3.57429 -3.32555 -1.34099 0.789537 0.19581 -3.81558 -0.599477 0.0364145 0.632609
189 1 11.404 22.6532 -1.85521 1.1462 2.87937 3.03823 5.50031 -3.80712 0.115774 0.582566 0.240469
92 1 1.49183 27.0716 -3.48636 -1.55268 0.823337 -0.21304 0.0711746 -3.82785 -0.0284622 -0.257473 -0.0911088
93 1 2.95679 25.6072 -5.14724 -2.98218 -1.24306 2.03838 0.190445 -3.82493 0.187006 0.00589545 -0.399566
94 1 4.31233 27.0701 -3.30817 -2.42482 -0.468398 -1.32983 5.37714 -3.82774 -0.14041 0.040465 -0.79212
193 1 2.87926 25.4829 -1.86606 -1.0862 0.475835 1.41936 5.90158 -3.86352 -0.226218 0.332884 0.232242
5 1 5.72241 28.2956 -5.07849 2.69086 -0.906142 0.0342517 5.39427 -3.87414 -0.212221 0.236679 -0.142044
107 1 8.62684 28.3911 -1.74517 1.62718 -2.83475 -3.52836 11.8433 -3.94544 -0.319181 0.797032 -0.786137
96 1 7.19496 27.0059 -3.48386 3.8854 -2.09663 -3.2721 5.87399 -3.96793 0.00270922 -0.192833 0.0748206
195 1 5.7699 25.6353 -1.84912 -1.7019 -1.17403 1.74296 6.23122 -3.7929 -0.122908 -0.428751 0.128308
197 1 8.65402 25.6862 -1.78958 -0.592902 -0.620959 0.00800132 0.338256 -3.95656 -0.568559 -0.670522 0.247201
7 1 8.51249 28.4072 -5.05471 0.305773 -1.36188 3.04787 0.385026 -3.89675 0.0769018 0.0288968 -0.658649
191 1 14.1954 25.5315 -1.83872 -0.0885336 -4.4938 -0.48509 0.211359 -3.81532 0.469368 0.281607 -0.0316655
98 1 9.85719 27.0277 -3.53376 2.60699 4.64685 0.62246 5.8626 -3.97513 0.756737 0.223774 0.0219396
100 1 12.8111 27.1397 -3.47187 0.688756 2.41483 -3.36628 0.113462 -3.85621 0.211741 -0.49451 -0.453705
199 1 11.3947 25.7747 -1.7878 -1.77748 -0.753815 0.440887 10.7801 -3.80938 0.119542 -0.657646 -0.0540078
99 1 11.3966 25.6653 -5.09911 -3.11862 -0.640777 0.494149 0.14867 -3.89405 -0.296504 -0.556214 0.116566
102 1 1.43258 1.58866 -0.0649029 7.38627 -3.29026 1.48818 0.304681 -3.94964 0.512526 0.402954 0.127245
104 1 4.40471 1.70471 -0.166075 -2.62904 -0.431866 -2.50035 0.245399 -3.83383 -0.525985 -0.0185085 -0.46821
202 1 1.64591 1.56967 3.1588 2.02744 3.5456 -1.59179 4.97394 -3.98575 -1.11129 0.346647 0.0336991
203 1 2.94499 0.259696 1.54862 -1.3304 -3.48688 0.0854903 0.134053 -3.99287 -0.082718 0.0654737 -0.472824
204 1 4.18458 1.68524 3.24983 -0.935437 1.48785 2.63114 10.4075 -3.92439 0.881419 -0.148175 -0.0396179
213 1 2.88677 3.08084 1.51022 -2.28947 -0.845795 -1.07431 0.384226 -3.9199 0.277576 -0.141014 0.24591
106 1 7.15632 1.63052 -0.182966 0.736671 -1.16949 0.0239501 0.269695 -3.97207 0.0701066 0.578147 0.871199
205 1 5.64874 0.299036 1.39791 2.33469 0.995414 0.291621 9.72259 -3.81221 0.742291 -0.408041 0.652619
206 1 7.2548 1.68985 3.20665 -1.46106 -1.55409 1.7364 10.8738 -3.8607 -0.388531 -0.506245 -0.0601132
207 1 8.58474 0.236208 1.63362 1.31666 3.04051 1.49325 0.16955 -3.89053 0.0530451 -0.22559 -0.436072
215 1 5.78167 2.95842 1.69233 -1.49422 -2.50707 3.51511 0.566268 -3.86234 -0.252406 0.674669 -0.811984
217 1 8.60442 3.0921 1.57458 -1.80041 2.92479 -5.24384 0.125262 -3.96405 0.0823611 -0.24509 -0.0996229
201 1 14.2143 0.277593 1.6377 -0.76465 1.66164 -3.30675 0.341879 -3.9112 -0.376599 -0.0594413 -0.220811
211 1 14.1953 3.09372 1.69805 0.131749 -3.47244 0.658656 0.310306 -3.82257 0.198118 -0.331413 -0.137678
108 1 9.98023 1.81548 -0.0407246 1.78008 -0.0382443 0.481447 6.03306 -3.80176 -0.151945 -0.978226 -0.356798
110 1 12.7567 1.63776 -0.141529 0.143622 0.261967 0.471904 0.171347 -3.78402 0.229386 0.0736998 0.308538
219 1 11.4042 3.08595 1.60233 2.96876 -3.6 -0.306264 0.0675528 -3.85602 -0.192283 -0.265188 0.449942
112 1 1.47335 4.44722 0.0286216 -2.08488 5.53109 1.88305 0.270087 -3.8632 0.210339 0.463393 -0.210473
114 1 4.45714 4.53943 0.0424955 0.408107 -1.46821 1.68028 5.55779 -3.9147 -0.461693 -0.294076 -0.285231
122 1 1.5387 7.19477 -0.00807622 -2.178 2.10286 -1.52883 0.272313 -3.77414 0.0137631 0.437959 -0.165327
124 1 4.30599 7.3213 -0.0334035 -1.70609 -0.894295 0.386355 0.164124 -3.88282 0.0575629 0.400477 0.135509
223 1 3.00176 5.86832 1.64641 -2.9209 -3.41332 -1.19244 0.121211 -3.90651 -0.0757127 0.154506 0.431451
116 1 7.08446 4.43511 -0.0329295 -0.717838 -0.661302 1.69127 5.68 -3.87739 0.389933 0.358477 -0.0468575
126 1 7.33953 7.39572 -0.056412 1.37971 -3.46356 0.697126 5.91656 -3.78644 -0.777616 -0.509648 -0.280151
216 1 7.15048 4.45322 3.16038 0.663868 1.20315 1.59813 0.383862 -3.95256 0.105629 0.636193 0.0494433
225 1 5.7941 6.05956 1.55144 0.299468 -1.75276 -1.18853 5.94991 -3.8492 0.080924 -0.269484 -0.0126922
227 1 8.61587 5.8789 1.55878 -0.532809 -0.371899 0.126652 0.148823 -3.88533 -0.338616 0.0991089 0.170551
221 1 14.1524 5.86373 1.6621 0.796103 -1.93786 -0.0692733 0.13981 -3.9095 0.12586 -0.199226 -0.29357
118 1 10.0291 4.4796 -0.0742201 -2.00022 0.251406 -1.34662 5.92171 -3.96758 -0.181595 0.332365 -0.260838
120 1 12.7727 4.51546 -0.145448 -2.93314 -0.0391201 0.674702 0.132126 -3.90043 0.359482 -0.246634 0.310161
128 1 10.0124 7.32217 -0.128495 -2.7644 2.28321 3.1472 5.96827 -3.95638 -0.547126 0.207667 0.279615
130 1 12.7448 7.26336 -0.121907 -1.8326 -3.86476 -3.53257 0.183273 -3.91111 0.102052 -0.2782 0.447979
218 1 9.92391 4.44006 3.28576 2.54663 2.02038 1.45237 0.0913847 -3.92738 0.0171448 0.22684 0.111138
220 1 12.7806 4.44772 3.27662 -0.879614 -1.25736 1.20844 0.0682675 -3.80839 -0.0316251 -0.0418386 0.523322
229 1 11.2652 5.91426 1.63958 0.58398 1.74186 -1.1864 5.57125 -3.92795 0.709135 0.10671 -0.195574
230 1 12.8446 7.35538 3.19321 2.31232 0.678649 1.21522 0.289598 -3.89551 -0.344788 -0.485388 0.133902
132 1 1.49806 10.2454 -0.166211 0.926583 1.77752 2.20689 0.216336 -3.89937 -0.0257183 -0.570596 0.0680394
134 1 4.33421 10.2257 -0.0134018 -1.95039 -2.01599 -1.69927 5.7983 -3.85394 0.0293833 -0.529114 0.041415
233 1 2.86938 8.7146 1.66499 -0.683116 0.194601 5.31636 0.152617 -3.77115 0.145648 0.00194931 -0.283686
234 1 4.30212 10.2221 3.28346 -0.621179 0.157015 -0.123602 11.618 -3.84744 0.525339 -0.289089 -0.0874158
241 1 0.149986 11.5192 1.55303 -2.41095 0.904273 -0.0212207 0.0994138 -3.94313 -0.35423 -0.164596 0.383135
243 1 2.87755 11.525 1.49418 -0.234391 0.744033 0.670144 0.282527 -3.92253 -0.0431842 0.180453 0.439451
136 1 7.34978 10.1327 -0.0386365 0.629619 0.98562 1.20116 5.35353 -3.95996 -0.84829 0.178344 -0.104978
235 1 5.87066 8.81598 1.5209 0.465343 -1.43871 1.4062 0.421636 -3.87585 -0.189837 -0.28186 0.253876
237 1 8.63235 8.75913 1.76971 2.56455 0.935182 0.542097 5.92788 -3.9865 0.0083808 0.0477091 -0.286683
245 1 5.87987 11.5851 1.59303 0.240801 -0.541356 -0.243051 0.428238 -3.87566 -0.422893 0.158662 0.32246
247 1 8.6244 11.498 1.71495 0.432483 -3.51449 2.45946 6.27186 -3.97114 -0.394375 0.656033 -0.440858
231 1 14.2058 8.74973 1.55188 -0.187028 1.52542 1.17023 0.0900905 -3.91184 0.0844903 -0.419758 -0.102286
138 1 9.92992 10.142 -0.113459 -1.64946 -2.47072 4.24093 5.62983 -3.97319 0.86617 0.0840793 0.125451
140 1 12.8378 10.2224 -0.104333 -3.06779 0.590986 0.953237 5.62593 -3.93397 -0.145012 -0.128424 0.508198
239 1 11.364 8.67474 1.56011 1.07823 -1.10089 5.00007 0.108483 -3.91028 0.0481102 0.169249 0.139787
240 1 12.788 10.0949 3.11498 0.473313 1.12475 -2.36237 10.7962 -3.83692 0.20292 0.0566113 0.922643
249 1 11.3994 11.5636 1.7029 0.00818624 4.09037 -1.73351 0.289805 -3.92203 -0.251817 -0.340743 -0.228687
142 1 1.52181 13.0509 0.010608 -1.28477 -4.17543 2.9049 0.397838 -3.88637 -0.196479 -0.377291 -0.389489
144 1 4.29805 12.8216 -0.177807 1.81958 -2.20134 0.0142737 5.22984 -3.87429 0.822071 1.02651 0.474978
152 1 1.51339 15.8576 -0.0165013 -0.669006 2.84052 -0.820189 5.77318 -3.98523 0.539957 -0.903463 -0.286743
154 1 4.25725 15.7179 -0.113154 2.46855 -1.35996 -1.82568 5.93066 -3.86209 0.494866 0.53889 -0.0752839
242 1 1.53992 12.9165 3.24882 0.280113 3.4737 -1.1283 6.13779 -3.93195 0.174142 -0.134191 0.149953
244 1 4.24982 12.7782 3.27899 2.14938 -0.0921022 -0.749942 5.78987 -3.85155 0.256988 0.821787 -0.207014
251 1 0.128475 14.4623 1.66474 2.68999 -0.1114 0.508103 5.81449 -3.89297 -0.186374 -0.22105 -0.126991
252 1 1.63436 15.7834 3.14956 -3.12021 0.366244 0.726554 4.93344 -3.8349 0.00693952 -0.244764 0.254997
253 1 3.02926 14.3678 1.63614 0.643288 -2.70259 -2.00417 0.380449 -3.89215 -0.023017 -0.232233 -0.171305
146 1 7.13468 12.9886 -0.0968692 1.04428 0.1527 -2.62964 0.13562 -3.78228 0.659797 -0.370739 0.327256
156 1 7.1141 15.8395 -0.0663536 -5.45427 -4.00032 2.42238 0.313733 -3.9 0.417979 -0.115498 0.0558477
255 1 5.79332 14.3612 1.54221 0.949383 2.2935 -3.25327 6.39623 -3.85961 -0.451844 -0.217863 0.614306
256 1 7.19239 15.8423 3.17407 -0.861153 0.781607 -0.146585 0.430427 -3.95711 0.560983 -0.563112 0.700114
257 1 8.60857 14.4287 1.6548 -2.00567 3.54744 2.76289 5.93907 -3.86232 -0.344035 -0.614687 -0.244401
148 1 10.0789 12.8625 0.0134261 2.53119 -0.204599 1.59625 5.56831 -3.86011 -0.376431 0.621061 -0.0648352
150 1 12.8144 12.9078 -0.0249488 0.842405 -1.04171 -0.584461 5.79873 -3.94755 0.114294 -0.011405 -0.0650022
158 1 10.0599 15.8093 -0.00587165 1.95172 -4.28031 -2.67566 0.28393 -3.81903 -0.334987 -0.326043 -0.173009
160 1 12.7974 15.8078 -0.118548 2.05154 2.79304 -0.0709358 0.226148 -3.87683 -0.0859889 0.0720284 0.684473
250 1 12.9049 12.9601 3.22532 1.45982 -1.9964 -1.75047 0.305183 -3.90981 -0.427431 -0.26523 0.530088
259 1 11.5154 14.2983 1.59127 2.36546 0.76793 -0.871017 0.274019 -3.94376 -0.773746 0.792013 -0.0733023
162 1 1.61205 18.4318 -0.082424 0.103087 0.473685 0.329909 5.5122 -3.8807 0.0268667 0.404568 0.172724
164 1 4.41893 18.6151 -0.2109 -0.211573 3.22505 -5.20284 5.52826 -3.88383 -0.117653 -0.50547 0.148291
262 1 1.64124 18.6991 3.26622 -1.57751 0.894061 -4.43727 5.50611 -3.91191 -0.794118 -0.675618 0.00542338
263 1 3.02324 17.1738 1.57625 -2.37006 -0.133771 0.32695 0.290394 -3.94797 -0.0280043 0.0824135 0.0815957
271 1 0.239882 19.931 1.473 -2.9132 -1.24747 -1.34561 0.654921 -3.91057 -0.42821 -0.103962 0.473327
273 1 3.06119 20.0027 1.59435 0.40391 -0.0741893 3.19324 5.88288 -3.87547 -0.44204 0.184744 -0.449125
166 1 7.16241 18.5363 -0.103022 0.698547 0.150344 -2.49931 5.28848 -3.89272 -0.329901 0.0840492 0.108995
265 1 5.71847 17.1429 1.7286 -1.6126 -0.82668 -3.54668 4.99231 -3.88097 -0.504776 0.100075 -0.331284
266 1 7.25348 18.553 3.17547 1.95445 3.37989 -0.145865 10.1162 -3.81072 -0.282071 -0.101074 0.685345
267 1 8.63962 17.1234 1.51028 1.62128 1.24999 -1.44411 0.2954 -3.88995 -0.504836 0.611396 0.192693
275 1 5.66392 19.9514 1.60141 0.0670137 -1.38317 -3.87798 5.48223 -3.88048 0.0942666 0.237387 0.103591
277 1 8.52362 20.0544 1.58939 0.898333 -0.0775842 -0.479706 5.09492 -3.89907 0.680109 0.0486896 -0.0557706
261 1 14.1769 17.1487 1.68029 3.22524 -0.724689 1.23685 5.3948 -3.93759 0.0522267 0.219652 -0.327546
168 1 9.9888 18.5753 -0.0549727 -3.61858 0.233632 -1.83299 5.68038 -3.85667 -0.249084 -0.50438 -0.0842463
170 1 12.8038 18.6463 0.0639008 0.900172 4.64776 -2.52583 0.378979 -3.94062 0.274483 -0.69034 -0.542678
269 1 11.4148 17.1891 1.79906 1.22914 3.37173 -1.05524 0.466915 -3.89782 0.419589 0.160261 -0.740746
270 1 12.909 18.7314 3.27212 -1.75346 -1.91228 -0.862528 5.82935 -3.82924 -0.529504 -0.64721 0.430196
279 1 11.3598 20.0486 1.56486 2.0114 -4.45816 0.994583 6.24735 -3.81482 -0.052694 -0.161472 0.424459
172 1 1.47279 21.4257 -0.0514969 2.33301 -0.225112 2.95214 0.299714 -3.91021 0.72914 -0.178033 -0.195055
174 1 4.32705 21.4567 -0.223285 -1.27528 -0.710527 -1.51037 0.311917 -3.89189 0.337971 0.11949 0.127756
182 1 1.5749 24.1646 -0.104849 -0.784188 -3.79054 -2.16947 6.48401 -3.9046 -0.549053 0.31569 0.233868
184 1 4.3073 24.238 -0.152683 -0.587332 0.565944 -1.32797 0.150737 -3.9102 -0.10014 -0.266757 -0.138996
272 1 1.50093 21.4332 3.18201 -1.3891 0.701157 2.48604 0.42253 -3.96865 -0.127223 -0.306519 0.286295
281 1 0.183488 22.7914 1.66134 -2.74019 0.616667 0.622568 0.183988 -3.89314 -0.09552 0.534989 -0.566499
283 1 2.92311 22.8102 1.68126 1.18139 2.06881 4.32688 0.21025 -3.83139 0.606149 0.314192 -0.221076
176 1 7.06694 21.3141 -0.0282976 -3.95137 -1.5893 -1.01736 5.15859 -3.96198 -0.0597589 0.352576 -0.603774
186 1 7.17879 24.1447 -0.208283 2.78581 2.06017 1.88695 0.211792 -3.83732 -0.106891 0.464205 0.337538
285 1 5.85589 22.7635 1.45024 1.31531 1.02106 -0.50399 6.40619 -3.81171 -0.747223 0.417036 0.386265
287 1 8.6565 22.7436 1.50161 2.42 3.87829 -0.705154 11.4502 -3.95444 -0.694825 0.231918 0.504705
178 1 9.99102 21.4199 -0.147397 -1.13098 -1.50552 3.15931 0.278154 -3.99304 0.46415 -0.362374 0.233232
180 1 12.8404 21.4228 0.000615361 -0.471497 0.0061306 0.269058 0.339459 -4.00069 0.0740607 0.250234 0.206165
188 1 10.0407 24.0693 -0.265679 -1.30348 -2.27273 0.479064 5.13944 -3.80748 -0.0338389 0.793588 0.407613
190 1 12.925 24.1389 -0.135926 -1.55903 -2.12372 1.13416 11.8276 -3.78208 -0.771831 0.325625 0.210213
280 1 12.8739 21.3633 3.19771 1.61778 1.13426 1.57654 5.93957 -3.88809 0.016932 0.35734 0.15029
289 1 11.3072 22.8471 1.59538 -3.96248 4.07387 -0.259648 5.43347 -3.91451 0.0467111 -0.13538 0.042811
290 1 12.8777 24.1232 3.26021 1.06046 -1.98762 3.24564 0.246293 -3.92365 -0.156317 0.444544 0.175979
192 1 1.54582 26.9795 -0.0682276 0.832332 -0.820942 0.130328 5.58716 -3.88343 -0.299127 -0.141785 -0.357305
194 1 4.33343 27.1078 -0.132157 -1.61671 -3.20912 1.28134 0.260243 -3.8799 0.0939694 -0.20686 -0.452015
291 1 0.123486 25.6243 1.7264 -1.91934 -0.395923 -0.219087 0.450173 -3.8489 0.1331 -0.389566 -0.469939
292 1 1.58125 27.1181 3.16589 0.521729 -0.104332 -0.21211 5.65115 -3.94551 0.142609 -0.41801 0.517801
293 1 3.0799 25.6086 1.5642 2.80973 1.17343 -0.298043 6.04611 -3.84153 -0.283673 0.0626178 0.282016
294 1 4.2495 27.1204 3.2519 -1.17778 2.9951 1.58236 5.27312 -3.89144 0.446573 -0.389262 0.0525555
196 1 7.3038 27.0489 0.0258073 3.37805 -2.98627 4.17109 5.11842 -3.84276 -0.597686 0.0291797 -0.705775
295 1 5.73558 25.636 1.54094 2.43808 0.681994 -1.51506 5.50193 -3.8797 0.153732 0.160589 -0.090598
296 1 7.17419 27.0665 3.15455 0.309675 6.50899 -1.89168 5.79771 -3.84069 0.294733 -0.124965 0.349818
297 1 8.56397 25.5256 1.59275 -0.134748 1.31643 -3.31811 0.37638 -3.83964 0.694501 0.41624 -0.093224
209 1 11.3537 28.3011 1.66746 -0.393176 -1.47754 0.78913 6.28506 -3.742 0.415168 0.578258 -0.331815
198 1 9.95313 27.0869 -0.201264 0.689763 -0.698924 -1.31982 5.43915 -3.78207 0.199978 -0.0376568 0.865484
200 1 13.0099 27.0067 -0.141175 5.30296 -0.270392 0.651806 5.86337 -3.79156 -0.56462 0.108828 0.0938398
299 1 11.357 25.6421 1.64021 0.613569 6.18239 1.53807 6.51307 -3.72586 0.0312515 -0.225434 0.0352429
301 1 0.190771 0.330155 4.82694 0.5675 -0.168496 -2.46061 9.38451 -3.93688 -0.163739 -0.698214 0.414199
302 1 1.52998 1.64637 6.8059 -1.42736 -3.15682 0.972455 0.35288 -3.88746 -0.272392 -0.151672 -0.764253
303 1 2.87995 0.257353 4.99862 0.341516 -0.0404191 -2.60214 5.59768 -3.96879 -0.0797876 0.0362639 0.158831
304 1 4.29008 1.6221 6.62885 -4.04083 -0.468429 4.02966 0.168029 -3.82609 0.153634 0.482262 0.510261
311 1 0.149724 2.85167 4.98936 -1.74976 0.28104 0.763369 10.2399 -3.80662 -0.346181 1.27039 -0.551493
313 1 2.89377 2.99568 4.8629 0.148637 -0.416692 -0.495992 5.63102 -3.81961 -0.261743 0.125136 0.375796
305 1 5.63949 0.272746 4.9938 -2.6762 0.601797 -1.53878 5.56609 -3.77091 0.516636 0.227136 -0.534234
306 1 7.16827 1.7968 6.6616 -0.497955 1.38302 -0.554626 6.19836 -3.85019 -0.632235 -0.998769 0.29488
307 1 8.54451 0.339894 5.04331 2.06573 -1.47317 -0.377265 6.09893 -3.90191 -0.414796 -0.592957 -0.444085
315 1 5.88369 2.98404 4.90051 0.746495 3.22544 0.384377 5.65733 -3.91588 -0.699019 0.192018 0.309896
317 1 8.5575 3.091 4.90193 0.877774 1.33708 0.284955 5.92471 -4.04042 -0.596972 -0.205045 0.335595
208 1 9.93587 1.5992 3.30622 -2.11946 3.54369 -4.60115 5.95207 -4.00346 0.0167913 0.21757 -0.223748
210 1 12.7168 1.62492 3.33789 1.93469 -2.84729 3.21644 0.367921 -3.87188 -0.18318 -0.0703772 -0.38174
308 1 9.85407 1.73124 6.61333 -3.32365 0.641461 0.348771 0.212378 -3.91258 0.225802 -0.264009 0.339963
309 1 11.427 0.271834 5.04098 2.261 -0.338001 1.59023 0.171569 -3.88454 -0.0156072 0.0489938 -0.345087
310 1 12.8338 1.67333 6.63704 -2.12593 2.9352 -1.91821 0.18374 -3.88243 -0.425892 -0.525805 0.231995
319 1 11.2832 3.0542 4.99789 1.40137 -1.12676 -0.599603 0.11338 -3.94317 0.756997 -0.00271337 -0.318313
212 1 1.5107 4.56417 3.31311 1.71349 1.1107 -0.37813 5.76695 -3.89664 0.295207 -0.804841 -0.227778
214 1 4.35594 4.34938 3.33335 -3.60792 0.888428 1.10906 5.2545 -3.86745 -0.232191 0.670418 -0.705597
222 1 1.54559 7.23945 3.28915 2.60978 -1.28947 -2.65909 5.77619 -3.91976 -0.489388 -0.0388266 -0.38042
224 1 4.45542 7.31972 3.32924 2.28078 -2.16034 3.83898 0.317966 -3.86192 -0.585214 0.444372 -0.337768
312 1 1.51633 4.46751 6.58765 6.58074 -1.87872 -2.48992 0.262589 -3.88251 0.271687 -0.418298 0.329645
314 1 4.38482 4.47065 6.7158 1.38421 -0.500902 1.94911 6.16956 -3.78299 -0.16978 -0.0252919 -0.318533
322 1 1.50912 7.24612 6.57226 2.77664 -2.04083 2.3912 0.117122 -3.86176 -0.0893267 -0.346477 0.119581
323 1 3.05231 5.91185 4.91616 -1.31866 2.39502 -0.268551 0.272166 -3.88791 -0.674927 0.130547 -0.0666606
324 1 4.3708 7.29584 6.60309 1.4459 0.563605 -1.51929 0.138607 -3.90321 -0.191072 -0.0572297 0.0427497
226 1 7.22143 7.27669 3.29225 -1.92098 2.73055 -2.00716 5.95859 -3.92474 0.317967 -0.0720162 0.248244
316 1 7.10763 4.57462 6.64554 2.31643 -3.52172 -0.258836 6.0818 -3.94429 0.136689 -0.67507 0.271294
325 1 5.76431 5.8264 4.85192 -2.43851 2.57701 -2.10025 0.288977 -3.91302 0.0138569 0.189666 0.549705
326 1 7.19795 7.24786 6.54917 -1.71798 -0.00966545 0.572563 0.288369 -3.96729 -0.126371 0.250588 -0.247125
327 1 8.55272 5.78657 5.0762 -1.12912 -0.410511 1.0442 5.33649 -3.89202 0.222562 0.120202 -0.724458
228 1 9.92162 7.27115 3.38031 0.0778168 -0.255412 1.79302 5.54257 -3.898 0.180972 0.0449742 -0.0380208
321 1 14.1448 5.82456 4.95955 4.06995 0.134137 -0.309495 0.203824 -3.88917 0.254677 0.644233 -0.360659
318 1 9.98504 4.43593 6.60739 1.75132 -4.65897 3.2673 0.0926084 -3.95102 -0.0455683 0.298985 0.299533
320 1 12.7757 4.48205 6.61489 1.89733 -3.11783 2.82706 0.191116 -3.87212 0.165881 -0.630091 -0.203085
328 1 10.0129 7.28399 6.47675 2.65819 -0.927283 -2.4793 4.88864 -3.87879 -0.171265 -0.0516857 0.658345
329 1 11.4291 5.87426 4.94049 1.9858 -1.38951 -0.786356 0.0795305 -3.91507 -0.268662 -0.0758419 -0.180043
330 1 12.8425 7.28945 6.63853 -1.97867 0.420953 -1.07444 0.0999996 -3.96593 -0.120995 0.0146125 0.237485
232 1 1.56015 10.1641 3.3075 2.12226 0.0705619 -0.681687 0.231686 -3.95205 -0.141083 -0.17906 -0.371535
332 1 1.46321 10.1244 6.67509 1.59487 2.03124 0.780371 5.86178 -3.91358 -0.100867 0.10457 -0.342338