ITEM: TIMESTEP
150750
ITEM: NUMBER OF ATOMS
2000
ITEM: BOX BOUNDS pp pp pp
1.0838953229856951e-01 1.4221610467701321e+01
2.1677906459713903e-01 2.8443220935402643e+01
-3.8215779828296519e+00 6.1141577982829212e+01
ITEM: ATOMS id type x y z vx vy vz c_csym c_peratom fx fy fz
2 1 1.62332 1.66863 -2.1892 -0.282889 -3.25185 -0.636516 0.279633 -3.95948 -0.160074 0.113795 -0.1533
4 1 4.35789 1.61575 -2.26806 0.990702 -5.33602 3.45801 6.00062 -3.94639 0.152401 0.0304814 0.557182
11 1 0.115605 3.14255 -3.76911 0.617832 -0.194419 3.50607 0.247624 -3.87853 -0.257277 -0.152867 -0.55468
101 1 0.126621 0.284403 -0.60305 -1.57173 1.46596 2.1275 0.153483 -3.99316 -0.383661 -0.198956 -0.260428
103 1 2.85007 0.270771 -0.537914 0.287695 0.367304 -1.8153 0.249179 -3.84839 0.269097 -0.12621 0.439772
111 1 0.168447 3.08626 -0.574136 -2.2925 0.592843 0.179022 0.135411 -3.94883 -0.121693 -0.228459 -0.353102
113 1 2.87763 3.13123 -0.513492 -1.71434 2.42111 -1.1208 5.91635 -3.91316 0.175233 -0.111248 0.0196328
13 1 2.94284 3.10367 -3.80079 -0.0706192 -1.95523 0.774801 0.0762245 -3.8839 -0.435048 -0.0533922 0.294815
6 1 7.17995 1.58532 -2.19658 -1.53139 -1.81767 -2.43971 0.234845 -3.93128 -0.165072 0.426204 -0.265946
17 1 8.63608 3.25517 -3.74595 -1.24355 -0.0988133 -0.860341 9.93871 -3.92788 -0.12471 -0.368507 0.0809744
105 1 5.90739 0.22905 -0.57255 0.812795 -1.48127 -4.16198 0.296619 -3.93358 -0.721481 -0.213448 -0.165582
115 1 5.79048 3.13764 -0.588658 -0.932742 0.818202 0.0439582 0.186076 -3.9149 -0.12005 -0.456028 -0.0218341
117 1 8.60233 3.08029 -0.500846 0.475293 0.415756 -1.302 0.179796 -3.90276 0.0674199 0.25259 -0.574982
15 1 5.86915 3.09703 -3.75916 -1.1078 -3.23994 -0.243916 0.305301 -3.85294 -0.19778 -0.0034183 -0.374426
8 1 9.98472 1.71462 -2.32257 1.02028 2.64764 -1.65962 0.449917 -3.9194 -0.490077 -0.240085 0.853907
9 1 11.3244 0.287262 -3.71191 -0.628437 1.37052 0.162777 0.436256 -3.91441 0.527944 0.0319433 0.196665
10 1 12.8557 1.68831 -2.26748 -0.261261 2.58464 0.684826 0.14833 -3.89913 -0.373517 0.0246793 -0.038937
109 1 11.3921 0.306018 -0.605227 4.17545 -4.26001 3.01885 0.174141 -3.91185 -0.403731 -0.620654 -0.525117
119 1 11.4562 3.11085 -0.664312 -0.877516 0.612354 1.13148 0.164851 -3.9569 -0.00722304 -0.443335 0.252215
12 1 1.52356 4.6359 -2.30085 1.18436 1.40208 1.05812 5.93998 -3.9059 -0.168117 -0.60967 0.234113
14 1 4.34915 4.42365 -2.08765 -0.761965 1.11821 -1.53086 0.283284 -3.9687 0.174422 0.408504 -0.541354
22 1 1.54026 7.32431 -2.27106 0.529166 1.27637 -0.648244 5.95776 -3.88643 -0.223496 -0.00431155 0.302752
23 1 3.01689 5.92797 -3.79151 4.21453 0.286138 -0.65637 0.228396 -3.88993 -0.2428 0.0116029 -0.30378
24 1 4.35552 7.36387 -2.19467 0.718611 1.41969 0.425215 0.114259 -3.91508 0.0306369 0.326802 0.323209
121 1 0.132435 5.82793 -0.581713 -2.35864 3.10392 -0.471262 0.196861 -3.90163 0.105839 0.13332 0.0789487
123 1 3.01618 5.86763 -0.47806 1.00139 1.8653 -1.24788 5.92979 -3.92776 -0.24495 -0.135859 0.099527
16 1 7.14135 4.5226 -2.11072 0.603539 0.154603 0.133915 0.168494 -3.94672 0.0672674 -0.298386 -0.11596
25 1 5.70759 5.92495 -3.69323 -0.827089 1.1553 2.35682 5.16019 -3.96746 0.439768 -0.268691 -0.452065
26 1 7.1412 7.16975 -2.2486 -0.0337704 2.62343 0.778117 5.33496 -3.85407 0.0495253 1.10412 0.256859
125 1 5.74127 5.95799 -0.534565 -0.136011 -2.75282 -0.154075 0.139614 -4.03418 0.169904 -0.103438 0.30278
127 1 8.57446 5.88387 -0.68194 -1.51658 -3.67076 0.00771245 0.4145 -3.90603 0.0224587 -0.135924 0.607951
18 1 10.0587 4.47472 -2.19307 2.01504 1.15568 0.108705 0.223026 -3.94175 -0.364763 0.66121 0.159386
20 1 12.7939 4.54238 -2.22968 -0.022531 3.00342 -1.17168 0.0662081 -3.99484 0.233341 0.274082 0.374673
28 1 10.1169 7.35391 -2.09598 1.08986 -1.21663 1.80841 5.63812 -3.91726 -0.354009 -0.539588 -0.22334
29 1 11.4127 5.98723 -3.80215 1.3822 1.47477 -0.555896 0.0547438 -3.96031 -0.252058 -0.202165 -0.169756
30 1 12.8531 7.28188 -2.12689 0.362699 -0.519128 0.486825 0.14001 -3.96798 0.146796 0.408442 -0.073326
129 1 11.3642 5.90889 -0.526786 -0.995542 1.01394 2.2528 0.11522 -3.99875 0.253455 -0.463462 0.125239
32 1 1.48279 10.1923 -2.26832 2.66336 -1.18469 0.933482 0.252453 -4.01757 0.27888 -0.385908 0.226659
34 1 4.32744 10.195 -2.26732 -3.42019 -1.92301 1.41173 0.206943 -3.92661 0.12442 -0.0707113 0.129106
43 1 2.92107 11.628 -3.79713 2.17426 0.782241 3.50485 0.126186 -4.01187 -0.0150252 -0.473998 -0.271663
133 1 2.87707 8.77788 -0.54533 -1.44944 0.975575 0.710255 0.0942296 -3.858 0.281673 -0.196587 0.241189
141 1 0.146359 11.6297 -0.670026 -2.20193 -7.04944 -1.51669 0.350275 -3.98085 0.0181522 0.209044 0.290901
143 1 2.92416 11.521 -0.57107 -0.572232 1.1909 1.77002 0.170552 -4.00129 -0.0412964 0.0724325 -0.696583
36 1 7.17897 10.1662 -2.14311 0.10168 3.47717 0.174941 0.176452 -3.8572 0.0448988 -0.185673 0.155678
47 1 8.63625 11.4798 -3.70895 -1.46078 2.66256 0.234251 0.30482 -3.93751 -0.412275 0.162446 -0.584577
135 1 5.71447 8.72482 -0.462133 -0.880733 0.590278 -0.109653 5.85676 -3.88435 0.534708 0.0223386 -0.065473
137 1 8.61908 8.74613 -0.641746 -4.19951 1.4167 -2.48788 0.389754 -3.94945 -0.145481 -0.209597 -0.115847
145 1 5.78797 11.4174 -0.568238 0.913579 -3.10787 0.676852 5.87584 -3.90219 -0.423438 0.32387 0.304607
147 1 8.63173 11.5707 -0.456069 -2.52053 -2.66134 -2.016 0.205596 -3.94444 -0.41422 0.443567 -0.60382
37 1 8.64539 8.6808 -3.67636 -0.410704 1.96136 0.795798 5.57486 -3.99001 -0.189641 0.0625158 -0.0804505
41 1 14.1834 11.5242 -3.71324 -1.35835 -5.95404 3.83557 0.265515 -3.96399 -0.263301 0.415371 0.051819
131 1 14.189 8.78043 -0.439314 -1.59748 2.05417 3.03081 0.443701 -3.86382 0.710417 -0.408269 -0.0671983
38 1 10.1092 10.2499 -2.06834 0.647054 3.02786 -2.05404 0.503817 -3.95704 -0.526374 -0.769911 0.536104
39 1 11.3428 8.78317 -3.76431 2.80774 -0.622395 -1.00191 0.224812 -3.94769 0.499545 -0.259429 0.224285
40 1 12.8549 10.1114 -2.04922 -1.75728 -0.634733 -0.267602 0.266829 -3.94634 -0.091705 0.139631 0.0274122
139 1 11.4119 8.69776 -0.476114 -0.425376 2.4171 -0.0430739 0.115376 -4.00149 -0.0728639 0.284236 -0.315673
149 1 11.4267 11.5446 -0.475149 -0.904464 -0.906018 0.248794 0.185645 -3.96363 0.377395 0.213975 -0.225634
49 1 11.351 11.4979 -3.73302 -3.94296 -1.72452 -3.57845 0.148526 -3.90899 0.266277 0.0621155 0.0698252
42 1 1.60077 12.9976 -2.2864 -0.841826 -0.173751 0.753914 5.45981 -3.93451 -0.505151 0.062489 0.358257
44 1 4.30049 12.9516 -2.30305 -1.17519 0.372824 -0.13007 6.24149 -4.00157 0.2716 0.174851 0.00876747
52 1 1.58776 15.7356 -2.03476 -0.585983 1.26946 1.71295 5.29744 -3.80533 -0.537882 0.0273652 -0.173052
54 1 4.38463 15.6552 -2.19833 0.269637 0.959657 1.9614 0.288325 -3.98062 -0.318568 0.149086 -0.309832
153 1 2.9946 14.2978 -0.556681 -3.03426 -0.361765 3.65674 0.169761 -3.90524 -0.61986 -0.0098512 0.184387
46 1 7.13899 12.8477 -2.2253 -0.042375 -0.703018 -2.37022 5.37493 -3.91051 -0.442751 0.161439 0.417226
56 1 7.08452 15.7726 -2.28505 0.19616 0.505449 -1.21975 0.276418 -3.99071 0.39378 0.132034 -0.168942
155 1 5.76502 14.3443 -0.619068 -0.699273 2.50818 -2.71856 0.105557 -3.93817 0.239259 -0.0191206 0.139431
157 1 8.53251 14.4644 -0.526899 1.77519 1.9958 -4.01974 5.33272 -3.93054 0.133473 -0.235934 0.422771
57 1 8.49816 14.3386 -3.66744 5.27468 2.46447 0.151665 0.561989 -3.82921 0.255055 0.0100749 -1.03184
51 1 14.0057 14.3518 -3.82112 5.08997 3.62125 -2.07853 9.75757 -3.85156 0.923343 -0.287438 -0.162702
151 1 14.2009 14.4155 -0.547477 -4.71089 2.01634 -0.85659 0.131265 -3.85163 -0.172306 -0.395412 0.0739461
48 1 9.93985 13.0563 -2.16974 2.86016 2.34417 0.701272 5.35916 -3.93147 0.125949 -0.540118 0.389345
50 1 12.7181 12.9904 -2.1727 0.559624 -1.36974 -0.820506 0.189589 -3.93633 -0.0981482 -0.370513 -0.138331
58 1 9.99316 15.7186 -2.18951 -3.3381 -1.51398 5.38263 0.185434 -3.98574 0.0820821 0.271341 0.144347
60 1 12.7967 15.7437 -2.18334 1.53771 1.90327 -4.70531 0.116039 -3.9914 -0.0347202 0.134149 0.423463
159 1 11.3491 14.3264 -0.492595 -0.265735 -1.65506 -3.98071 0.156922 -3.94498 -0.0445585 0.417332 -0.150981
62 1 1.43944 18.5161 -2.14441 0.272627 0.831543 -0.200207 0.118438 -3.89763 0.150367 0.0580778 -0.383196
64 1 4.38586 18.6552 -2.13985 1.24428 1.0664 2.86252 5.49338 -3.90509 -0.1711 -0.625192 0.373003
163 1 2.94245 17.1558 -0.671495 0.341627 2.40032 0.506019 0.427794 -3.92693 0.103689 0.144865 0.201756
171 1 0.141802 19.9783 -0.451864 -0.0590841 -1.37942 4.27312 0.183366 -4.00269 -0.638951 0.171224 -0.502411
173 1 2.89555 19.9823 -0.580726 0.785649 -1.23368 2.3689 0.153126 -3.97996 -0.84769 -0.020942 0.18723
66 1 7.24355 18.6165 -2.1407 2.75597 -4.35103 0.905848 4.9692 -3.98873 -0.775838 0.0622017 0.194201
67 1 8.57677 17.1461 -3.7952 -4.30079 -3.56988 1.31798 0.0496268 -4.02338 -0.0124149 0.0295713 0.160409
165 1 5.78304 17.093 -0.628933 1.97311 1.99329 -0.167527 0.250166 -3.93159 -0.151314 0.0974138 -0.115824
167 1 8.56005 17.078 -0.686983 1.63712 1.01306 -0.622391 4.90697 -3.97199 0.0445803 0.0746008 0.65352
175 1 5.70632 20.007 -0.552498 -3.42076 -2.85137 2.01629 0.139403 -3.94236 0.17758 0.228412 -0.174311
177 1 8.58858 20.043 -0.328893 -1.05917 0.80188 -0.731301 5.38551 -3.90465 0.0148463 -0.60246 -0.594665
75 1 5.71713 19.9361 -3.81131 -4.53949 -0.9021 2.29786 6.44547 -3.92828 -0.168371 -0.115991 -0.371539
65 1 5.67248 17.193 -3.76984 -1.31158 -3.63153 -0.620776 0.34719 -3.9659 0.336304 -0.10244 0.0964299
161 1 14.1852 17.2046 -0.446174 -8.06951 -0.86164 0.0732044 0.231082 -4.00841 -0.193533 0.306277 -0.292557
68 1 9.83757 18.5862 -2.11203 1.01621 0.95189 3.77626 5.56444 -3.96555 0.806228 0.187468 -0.40374
70 1 12.7582 18.5098 -2.15604 -2.75978 -0.241021 0.901339 0.161007 -3.85734 0.229397 0.610701 -0.0176412
169 1 11.4357 17.1907 -0.56397 -0.050047 0.778513 1.36961 0.114654 -3.92296 -0.479971 -0.202701 0.376735
179 1 11.4548 19.9395 -0.471056 0.478562 4.61523 -0.247094 6.17564 -3.96062 -0.013356 0.151051 -0.490897
69 1 11.3235 17.1806 -3.70656 2.51938 -0.439877 2.89062 0.23503 -3.9217 0.561233 -0.0646669 -0.160732
71 1 14.189 20.001 -3.69931 -3.02828 1.71166 0.793185 0.320831 -3.82438 -0.402247 -0.382345 -0.417835
61 1 14.2026 17.0274 -3.74315 -2.79754 0.110739 5.17862 0.311149 -3.8793 0.453817 0.0157666 0.0249723
72 1 1.54936 21.3951 -2.24596 2.3338 -3.4761 -2.56089 5.9495 -4.00517 -0.54149 0.0360907 -0.447901
74 1 4.24289 21.3195 -2.10509 -0.775897 2.76848 -0.309503 0.393923 -4.07309 0.759508 -0.221132 -0.632273
82 1 1.5098 24.075 -2.32471 -0.197856 1.54937 -4.05427 0.30699 -3.98262 -0.306605 0.320988 -0.24995
84 1 4.24694 24.1216 -2.1656 1.75243 2.83472 -4.12876 5.31729 -3.90349 0.651309 0.266045 -0.296809
181 1 0.128659 22.763 -0.619856 -3.03311 -1.67311 -0.629939 0.0490544 -3.98815 0.11804 -0.0912334 -0.223919
183 1 2.89382 22.7594 -0.665892 0.572942 -1.11899 -0.365379 0.177443 -4.03977 -0.0600697 0.370899 0.307092
76 1 7.14056 21.2635 -2.19403 -0.691281 0.193514 1.05787 5.57085 -3.81365 -0.089362 0.548253 0.387317
86 1 7.25436 24.2668 -2.19118 -2.43118 3.29649 -1.15762 5.92594 -3.82565 -0.0257729 -0.314783 -0.196368
185 1 5.72509 22.8979 -0.660396 3.67767 -2.14848 -3.35625 0.483767 -3.97027 0.340952 -0.52773 0.00414336
187 1 8.47118 22.692 -0.474678 -0.732136 -0.532565 -1.73565 5.42368 -3.93303 0.288059 0.176208 -0.286424
78 1 9.92402 21.3232 -2.25418 -2.14879 -1.2859 1.20999 0.237491 -3.93911 0.109535 0.441501 0.843834
80 1 12.7264 21.3466 -2.17294 -2.02506 0.894117 1.33119 0.065866 -3.90427 0.211888 0.254621 -0.0333632
88 1 9.99398 24.1702 -2.14701 -1.34963 2.3224 -3.76156 0.217919 -3.90794 -0.170997 -0.0845532 0.080524
90 1 12.8226 24.1983 -2.29003 -3.32555 -1.34099 0.789537 0.189438 -3.87814 -0.641748 0.151137 0.402464
189 1 11.404 22.6532 -0.639442 1.1462 2.87937 3.03823 0.296472 -3.85699 0.37994 0.411045 0.0305123
92 1 1.49183 27.0716 -2.2056 -1.55268 0.823337 -0.21304 0.0702243 -3.8914 0.0890117 0.0941701 0.16599
93 1 2.95679 25.6072 -3.80031 -2.98218 -1.24306 2.03838 0.181486 -3.89886 -0.0735958 0.286998 0.00392558
94 1 4.31233 27.0701 -2.03451 -2.42482 -0.468398 -1.32983 0.73468 -3.89159 -0.0161341 -0.261918 -0.636635
193 1 2.87926 25.4829 -0.64986 -1.0862 0.475835 1.41936 5.723 -3.9054 -0.0500615 0.812372 -0.086938
5 1 5.72241 28.2956 -3.7343 2.69086 -0.906142 0.0342517 5.23999 -3.93388 -0.326925 0.522519 -0.57038
107 1 8.62684 28.3911 -0.533784 1.62718 -2.83475 -3.52836 5.8114 -3.99967 0.131743 0.509725 -0.552816
96 1 7.19496 27.0059 -2.2032 3.8854 -2.09663 -3.2721 0.0402563 -4.00385 0.026516 0.0593387 0.583627
195 1 5.7699 25.6353 -0.633596 -1.7019 -1.17403 1.74296 6.05497 -3.85598 -0.115942 -0.333792 0.113384
197 1 8.65402 25.6862 -0.576425 -0.592902 -0.620959 0.00800132 0.330715 -3.99792 -0.74436 -0.601026 -0.20013
7 1 8.51249 28.4072 -3.71147 0.305773 -1.36188 3.04787 0.365086 -3.9354 -0.228109 -0.0361675 -0.371436
191 1 14.1954 25.5315 -0.623607 -0.0885336 -4.4938 -0.48509 0.209804 -3.86608 0.14693 0.471547 -0.462362
98 1 9.85719 27.0277 -2.25111 2.60699 4.64685 0.62246 5.67152 -4.02983 0.846172 -0.0455569 -0.14389
100 1 12.8111 27.1397 -2.19169 0.688756 2.41483 -3.36628 0.1122 -3.91315 -0.264164 -0.589757 -0.349036
199 1 11.3947 25.7747 -0.574719 -1.77748 -0.753815 0.440887 5.50422 -3.86893 0.720172 -0.493583 -0.31429
99 1 11.3966 25.6653 -3.75409 -3.11862 -0.640777 0.494149 0.144708 -3.94832 -0.288024 -0.440452 0.278311
102 1 1.43258 1.58866 1.07954 7.38627 -3.29026 1.48818 0.300675 -4.00047 0.426352 0.2482 0.111079
104 1 4.40471 1.70471 0.982398 -2.62904 -0.431866 -2.50035 0.238757 -3.8969 -0.50417 0.0642693 -0.642438
202 1 1.64591 1.56967 4.1748 2.02744 3.5456 -1.59179 4.80036 -4.01328 -0.91651 0.538947 0.0249809
203 1 2.94499 0.259696 2.62878 -1.3304 -3.48688 0.0854903 0.131738 -4.02286 0.271635 -0.0608899 -0.228223
204 1 4.18458 1.68524 4.26221 -0.935437 1.48785 2.63114 4.74524 -3.96271 1.01539 -0.139418 -0.243854
213 1 2.88677 3.08084 2.59191 -2.28947 -0.845795 -1.07431 0.370418 -3.97348 0.292595 -0.20687 -0.183558
106 1 7.15632 1.63052 0.96618 0.736671 -1.16949 0.0239501 0.256907 -4.01897 0.332296 0.37075 0.493032
205 1 5.64874 0.299036 2.48407 2.33469 0.995414 0.291621 4.80643 -3.86564 0.426928 -0.53973 0.807161
206 1 7.2548 1.68985 4.22075 -1.46106 -1.55409 1.7364 4.97249 -3.91073 -0.562559 -0.688368 0.141146
207 1 8.58474 0.236208 2.71039 1.31666 3.04051 1.49325 0.16106 -3.92821 0.568381 0.255943 -0.74215
215 1 5.78167 2.95842 2.76676 -1.49422 -2.50707 3.51511 0.546451 -3.91786 -0.209796 0.526124 -0.445558
217 1 8.60442 3.0921 2.65371 -1.80041 2.92479 -5.24384 0.123801 -3.99399 -0.206892 -0.00748503 -0.159153
201 1 14.2143 0.277593 2.71431 -0.76465 1.66164 -3.30675 0.33176 -3.96338 -0.434437 -0.418089 0.263653
211 1 14.1953 3.09372 2.77225 0.131749 -3.47244 0.658656 0.292206 -3.8913 0.0105267 -0.210867 0.174334
108 1 9.98023 1.81548 1.10275 1.78008 -0.0382443 0.481447 5.81826 -3.85568 -0.115163 -0.695727 -0.130372
110 1 12.7567 1.63776 1.00597 0.143622 0.261967 0.471904 0.166741 -3.84237 0.290043 0.0361783 0.491166
219 1 11.4042 3.08595 2.68035 2.96876 -3.6 -0.306264 0.066769 -3.90103 0.0503361 -0.022764 0.380989
112 1 1.47335 4.44722 1.16934 -2.08488 5.53109 1.88305 0.256608 -3.91228 -0.201325 0.864581 0.0726788
114 1 4.45714 4.53943 1.18266 0.408107 -1.46821 1.68028 5.36228 -3.97806 -0.0399662 -0.664733 -0.255875
122 1 1.5387 7.19477 1.1341 -2.178 2.10286 -1.52883 0.269686 -3.83617 -0.221825 -0.0141426 0.323507
124 1 4.30599 7.3213 1.10978 -1.70609 -0.894295 0.386355 0.161687 -3.91971 -0.0465659 0.109726 0.13624
223 1 3.00176 5.86832 2.72267 -2.9209 -3.41332 -1.19244 0.120667 -3.96332 -0.283403 -0.0820934 0.0436158
116 1 7.08446 4.43511 1.11024 -0.717838 -0.661302 1.69127 5.47542 -3.94356 0.654253 0.361028 0.288601
126 1 7.33953 7.39572 1.08769 1.37971 -3.46356 0.697126 5.68607 -3.84184 -0.56509 -0.309599 -0.485852
216 1 7.15048 4.45322 4.17632 0.663868 1.20315 1.59813 0.364459 -4.00553 0.0148625 0.462747 0.322603
225 1 5.7941 6.05956 2.63148 0.299468 -1.75276 -1.18853 5.75766 -3.90807 -0.237904 -0.275843 0.453462
227 1 8.61587 5.8789 2.63853 -0.532809 -0.371899 0.126652 0.14236 -3.93 -0.351058 0.195138 -0.119096
221 1 14.1524 5.86373 2.73774 0.796103 -1.93786 -0.0692733 0.134824 -3.96192 0.35832 0.385429 -0.0427869
118 1 10.0291 4.4796 1.07059 -2.00022 0.251406 -1.34662 5.71133 -4.01159 -0.0993143 -0.0514294 -0.121492
120 1 12.7727 4.51546 1.0022 -2.93314 -0.0391201 0.674702 0.124444 -3.95875 -0.0776543 -0.494587 0.130156
128 1 10.0124 7.32217 1.01848 -2.7644 2.28321 3.1472 5.78173 -3.99839 -0.493186 -0.124273 -0.135987
130 1 12.7448 7.26336 1.02481 -1.8326 -3.86476 -3.53257 0.174826 -3.97125 0.35747 0.067449 0.411898
218 1 9.92391 4.44006 4.29671 2.54663 2.02038 1.45237 0.090154 -3.98073 0.309355 0.0486163 -0.175587
220 1 12.7806 4.44772 4.28793 -0.879614 -1.25736 1.20844 0.0663557 -3.85409 0.0164158 -0.069756 0.352478
229 1 11.2652 5.91426 2.71611 0.58398 1.74186 -1.1864 5.39746 -3.97938 0.538767 0.00182405 0.119687
230 1 12.8446 7.35538 4.20784 2.31232 0.678649 1.21522 0.283921 -3.93761 -0.133127 -0.542569 -0.0478171
132 1 1.49806 10.2454 0.982268 0.926583 1.77752 2.20689 0.210789 -3.93912 0.196997 -0.548645 0.626697
134 1 4.33421 10.2257 1.12899 -1.95039 -2.01599 -1.69927 5.56863 -3.9025 0.348528 -0.188606 0.228551
233 1 2.86938 8.7146 2.74051 -0.683116 0.194601 5.31636 0.149733 -3.84057 0.161448 0.208259 -0.179843
234 1 4.30212 10.2221 4.2945 -0.621179 0.157015 -0.123602 5.63446 -3.91637 0.666105 -0.260551 0.106026
241 1 0.149986 11.5192 2.63301 -2.41095 0.904273 -0.0212207 0.0966633 -3.98079 -0.429269 -0.249969 0.201357
243 1 2.87755 11.525 2.57651 -0.234391 0.744033 0.670144 0.267693 -3.95445 0.0383979 -0.293332 0.360033
136 1 7.34978 10.1327 1.10476 0.629619 0.98562 1.20116 5.17795 -4.00506 -0.743949 0.361498 -0.35892
235 1 5.87066 8.81598 2.60216 0.465343 -1.43871 1.4062 0.405271 -3.93866 -0.508595 -0.542031 0.0707871
237 1 8.63235 8.75913 2.84106 2.56455 0.935182 0.542097 0.412013 -4.04034 -0.232186 -0.0737352 -0.414765
245 1 5.87987 11.5851 2.67142 0.240801 -0.541356 -0.243051 0.426493 -3.93273 -0.494354 -0.00552639 0.13267
247 1 8.6244 11.498 2.78848 0.432483 -3.51449 2.45946 0.210585 -4.02296 0.0499521 0.658337 0.0843039
231 1 14.2058 8.74973 2.63191 -0.187028 1.52542 1.17023 0.0885932 -3.97244 0.3825 0.0386061 -0.240714
138 1 9.92992 10.142 1.03292 -1.64946 -2.47072 4.24093 5.44114 -4.02825 0.627402 -0.131327 0.207232
140 1 12.8378 10.2224 1.04168 -3.06779 0.590986 0.953237 0.204853 -3.98703 -0.475964 -0.251809 0.0652198
239 1 11.364 8.67474 2.63981 1.07823 -1.10089 5.00007 0.104666 -3.97071 0.0402731 0.388995 0.0374937
240 1 12.788 10.0949 4.13273 0.473313 1.12475 -2.36237 10.5006 -3.88475 0.0492175 0.54694 0.376415
249 1 11.3994 11.5636 2.77691 0.00818624 4.09037 -1.73351 0.273585 -3.96653 -0.227537 -0.0952104 -0.079256
142 1 1.52181 13.0509 1.15204 -1.28477 -4.17543 2.9049 0.379711 -3.95994 0.138011 -0.311246 -0.263475
144 1 4.29805 12.8216 0.971133 1.81958 -2.20134 0.0142737 5.06484 -3.92126 0.537448 0.755564 0.262323
152 1 1.51339 15.8576 1.12601 -0.669006 2.84052 -0.820189 5.56479 -4.04072 0.407656 -0.653497 -0.540143
154 1 4.25725 15.7179 1.03321 2.46855 -1.35996 -1.82568 0.312431 -3.92441 0.293075 0.559043 -0.357881
242 1 1.53992 12.9165 4.26124 0.280113 3.4737 -1.1283 0.130778 -3.98812 0.00132651 0.186416 0.123043
244 1 4.24982 12.7782 4.29021 2.14938 -0.0921022 -0.749942 5.57148 -3.92334 0.305192 0.718992 -0.0601802
251 1 0.128475 14.4623 2.74027 2.68999 -0.1114 0.508103 0.236573 -3.93643 -0.253885 -0.3654 -0.450018
252 1 1.63436 15.7834 4.16593 -3.12021 0.366244 0.726554 4.79023 -3.89425 -0.236594 -0.154791 -0.0703776
253 1 3.02926 14.3678 2.71282 0.643288 -2.70259 -2.00417 0.370739 -3.93482 0.172686 -0.408238 0.0392058
146 1 7.13468 12.9886 1.04885 1.04428 0.1527 -2.62964 0.134242 -3.82494 0.680806 -0.147929 0.253173
156 1 7.1141 15.8395 1.07815 -5.45427 -4.00032 2.42238 0.305321 -3.95105 0.364322 -0.199743 0.304656
255 1 5.79332 14.3612 2.62263 0.949383 2.2935 -3.25327 6.20456 -3.92195 -0.394563 -0.0251824 0.289629
256 1 7.19239 15.8423 4.18947 -0.861153 0.781607 -0.146585 0.4101 -3.99344 0.399948 -0.435457 0.442613
257 1 8.60857 14.4287 2.73072 -2.00567 3.54744 2.76289 0.0771574 -3.91833 -0.516918 -0.649926 -0.357919
148 1 10.0789 12.8625 1.15475 2.53119 -0.204599 1.59625 5.40286 -3.90814 -0.715327 0.15758 0.0896506
150 1 12.8144 12.9078 1.1179 0.842405 -1.04171 -0.584461 0.166667 -4.00175 0.623737 0.403253 -0.0566696
158 1 10.0599 15.8093 1.13622 1.95172 -4.28031 -2.67566 0.272923 -3.87957 0.0151938 -0.0596566 0.0642003
160 1 12.7974 15.8078 1.02803 2.05154 2.79304 -0.0709358 0.212953 -3.9308 0.313617 -0.384986 0.534759
250 1 12.9049 12.9601 4.23867 1.45982 -1.9964 -1.75047 0.288408 -3.96858 -0.175289 0.00160292 0.310314
259 1 11.5154 14.2983 2.66973 2.36546 0.76793 -0.871017 0.2714 -3.9822 -0.831953 0.692933 0.127329
162 1 1.61205 18.4318 1.06272 0.103087 0.473685 0.329909 5.29506 -3.93801 -0.0203552 0.723236 0.31574
164 1 4.41893 18.6151 0.939359 -0.211573 3.22505 -5.20284 0.373341 -3.94225 -0.0797613 -0.43565 -0.170371
262 1 1.64124 18.6991 4.27795 -1.57751 0.894061 -4.43727 5.29614 -3.96635 -0.799494 -0.695088 -0.119792
263 1 3.02324 17.1738 2.6553 -2.37006 -0.133771 0.32695 0.279785 -3.9901 -0.0310287 0.170913 0.363211
271 1 0.239882 19.931 2.55617 -2.9132 -1.24747 -1.34561 0.631729 -3.96035 -0.089106 0.264537 0.032725
273 1 3.06119 20.0027 2.67269 0.40391 -0.0741893 3.19324 5.67613 -3.93829 -0.292751 0.394968 -0.177493
166 1 7.16241 18.5363 1.04294 0.698547 0.150344 -2.49931 0.197651 -3.96309 0.123916 -0.332906 -0.149235
265 1 5.71847 17.1429 2.80158 -1.6126 -0.82668 -3.54668 4.84645 -3.94873 -0.535492 0.0434512 -0.397035
266 1 7.25348 18.553 4.19081 1.95445 3.37989 -0.145865 5.16579 -3.8724 -0.703188 -0.00332135 0.273856
267 1 8.63962 17.1234 2.59196 1.62128 1.24999 -1.44411 0.283017 -3.93242 -0.00336073 0.630391 0.149492
275 1 5.66392 19.9514 2.67947 0.0670137 -1.38317 -3.87798 5.28685 -3.94195 0.0812488 -0.00201021 0.108453
277 1 8.52362 20.0544 2.66792 0.898333 -0.0775842 -0.479706 4.91551 -3.9648 0.293459 -0.210157 -0.00517973
261 1 14.1769 17.1487 2.7552 3.22524 -0.724689 1.23685 0.365863 -3.98841 -0.135278 0.381582 -0.227418
168 1 9.9888 18.5753 1.08907 -3.61858 0.233632 -1.83299 0.230509 -3.90679 0.0969011 -0.48537 0.228931
170 1 12.8038 18.6463 1.20321 0.900172 4.64776 -2.52583 0.359495 -3.98741 0.108407 -0.47078 0.0975492
269 1 11.4148 17.1891 2.86924 1.22914 3.37173 -1.05524 0.43744 -3.94657 0.430948 0.0954295 -0.557894
270 1 12.909 18.7314 4.28361 -1.75346 -1.91228 -0.862528 5.60238 -3.9024 -0.326074 -0.313371 0.393486
279 1 11.3598 20.0486 2.64437 2.0114 -4.45816 0.994583 0.287671 -3.87937 -0.062499 -0.327629 0.386543
172 1 1.47279 21.4257 1.09241 2.33301 -0.225112 2.95214 0.289612 -3.95899 0.818763 0.29572 -0.142271
174 1 4.32705 21.4567 0.927467 -1.27528 -0.710527 -1.51037 0.296563 -3.95697 0.202918 -0.408738 0.147988
182 1 1.5749 24.1646 1.04118 -0.784188 -3.79054 -2.16947 0.0659862 -3.9676 -0.633838 0.224003 0.495251
184 1 4.3073 24.238 0.995257 -0.587332 0.565944 -1.32797 0.1482 -3.96096 -0.0319825 -0.33768 -0.0501204
272 1 1.50093 21.4332 4.19709 -1.3891 0.701157 2.48604 0.401994 -4.01661 0.117311 -0.564768 0.419924
281 1 0.183488 22.7914 2.737 -2.74019 0.616667 0.622568 0.17268 -3.922 -0.450285 0.416816 -0.318176
283 1 2.92311 22.8102 2.75613 1.18139 2.06881 4.32688 0.196687 -3.88901 0.472585 -0.0883447 -0.305434
176 1 7.06694 21.3141 1.11469 -3.95137 -1.5893 -1.01736 0.403723 -3.98856 -0.0579629 0.422158 -0.550065
186 1 7.17879 24.1447 0.941872 2.78581 2.06017 1.88695 0.203729 -3.87899 -0.169042 0.859592 0.109636
285 1 5.85589 22.7635 2.53432 1.31531 1.02106 -0.50399 0.58605 -3.88204 -0.418891 0.545679 0.81549
287 1 8.6565 22.7436 2.58364 2.42 3.87829 -0.705154 11.056 -4.03401 -0.389172 0.0995831 0.0423006
178 1 9.99102 21.4199 1.00033 -1.13098 -1.50552 3.15931 0.264576 -4.01594 0.432703 0.00405421 0.0439958
180 1 12.8404 21.4228 1.14245 -0.471497 0.0061306 0.269058 0.321867 -4.06475 0.064423 0.338862 0.455214
188 1 10.0407 24.0693 0.886763 -1.30348 -2.27273 0.479064 4.96631 -3.86264 -0.1681 0.728257 -0.210406
190 1 12.925 24.1389 1.01135 -1.55903 -2.12372 1.13416 5.74143 -3.84507 -0.715407 0.0823124 0.274026
280 1 12.8739 21.3633 4.21216 1.61778 1.13426 1.57654 5.7643 -3.96801 -0.26062 -0.0538255 -0.281641
289 1 11.3072 22.8471 2.67368 -3.96248 4.07387 -0.259648 5.23201 -3.97208 0.148189 -0.127241 -0.0182968
290 1 12.8777 24.1232 4.27218 1.06046 -1.98762 3.24564 0.242723 -3.97107 -0.171491 0.0664326 0.402224
192 1 1.54582 26.9795 1.07635 0.832332 -0.820942 0.130328 5.39373 -3.96268 -0.216012 0.0146259 0.0555312
194 1 4.33343 27.1078 1.01496 -1.61671 -3.20912 1.28134 0.256509 -3.93263 -0.0542957 -0.604317 -0.411089
291 1 0.123486 25.6243 2.79947 -1.91934 -0.395923 -0.219087 0.423012 -3.90662 -0.0221159 -0.19547 -0.0866123
292 1 1.58125 27.1181 4.18161 0.521729 -0.104332 -0.21211 5.47627 -3.99748 0.140679 -0.335179 0.0438889
293 1 3.0799 25.6086 2.64373 2.80973 1.17343 -0.298043 6.01788 -3.88876 -0.665095 -0.262369 0.340114
294 1 4.2495 27.1204 4.2642 -1.17778 2.9951 1.58236 0.25734 -3.93619 0.838742 -0.0611376 -0.038615
196 1 7.3038 27.0489 1.16664 3.37805 -2.98627 4.17109 4.9909 -3.89578 -0.49041 0.0694654 -0.584434
295 1 5.73558 25.636 2.6214 2.43808 0.681994 -1.51506 5.32048 -3.93962 0.382047 -0.239395 -0.048368
296 1 7.17419 27.0665 4.17073 0.309675 6.50899 -1.89168 0.267592 -3.88458 -0.103659 0.118313 -0.0528828
297 1 8.56397 25.5256 2.67115 -0.134748 1.31643 -3.31811 0.365003 -3.917 0.544674 -0.00940498 0.0798298
209 1 11.3537 28.3011 2.74288 -0.393176 -1.47754 0.78913 6.06739 -3.81236 0.603061 0.558778 -0.472839
198 1 9.95313 27.0869 0.948611 0.689763 -0.698924 -1.31982 5.27694 -3.82635 0.453265 -0.339383 0.850698
200 1 13.0099 27.0067 1.00631 5.30296 -0.270392 0.651806 5.66701 -3.8627 -0.476858 -0.0122611 0.156346
299 1 11.357 25.6421 2.71672 0.613569 6.18239 1.53807 6.40921 -3.81175 0.510728 0.0689549 0.0995385
301 1 0.190771 0.330155 5.77648 0.5675 -0.168496 -2.46061 5.04654 -4.00013 -0.236591 -0.311059 0.358228
302 1 1.52998 1.64637 7.6766 -1.42736 -3.15682 0.972455 0.328849 -3.95176 -0.0589049 -0.0973704 -0.498095
303 1 2.87995 0.257353 5.94132 0.341516 -0.0404191 -2.60214 0.191411 -4.01402 0.198008 -0.51318 0.17052
304 1 4.29008 1.6221 7.5066 -4.04083 -0.468429 4.02966 0.162166 -3.88487 0.0413594 0.474077 0.26051
311 1 0.149724 2.85167 5.93243 -1.74976 0.28104 0.763369 5.33962 -3.86737 0.148352 1.25301 -0.509954
313 1 2.89377 2.99568 5.81101 0.148637 -0.416692 -0.495992 5.45689 -3.87137 -0.3749 0.179309 0.243477
305 1 5.63949 0.272746 5.9367 -2.6762 0.601797 -1.53878 5.37618 -3.82625 0.821125 0.377621 -0.677229
306 1 7.16827 1.7968 7.53805 -0.497955 1.38302 -0.554626 5.96929 -3.88006 -0.573798 -0.466664 0.489527
307 1 8.54451 0.339894 5.98424 2.06573 -1.47317 -0.377265 0.340849 -3.95882 -0.27787 -0.685828 -0.0610756
315 1 5.88369 2.98404 5.84712 0.746495 3.22544 0.384377 5.44126 -3.96362 -0.844113 0.6113 0.290878
317 1 8.5575 3.091 5.84848 0.877774 1.33708 0.284955 0.0797505 -4.08199 -0.177863 -0.263421 -0.113849
208 1 9.93587 1.5992 4.31635 -2.11946 3.54369 -4.60115 0.124753 -4.04889 0.227613 0.263748 0.0400879
210 1 12.7168 1.62492 4.34676 1.93469 -2.84729 3.21644 0.362709 -3.91923 0.116651 0.255051 -0.41833
308 1 9.85407 1.73124 7.4917 -3.32365 0.641461 0.348771 0.209698 -3.94981 0.305827 -0.128965 -0.060845
309 1 11.427 0.271834 5.98199 2.261 -0.338001 1.59023 0.161658 -3.93148 -0.460966 0.255046 -0.296866
310 1 12.8338 1.67333 7.51447 -2.12593 2.9352 -1.91821 0.177566 -3.92922 -0.377869 -0.368067 0.210107
319 1 11.2832 3.0542 5.94062 1.40137 -1.12676 -0.599603 0.111456 -3.98485 0.442611 -0.0148701 -0.375824
212 1 1.5107 4.56417 4.32297 1.71349 1.1107 -0.37813 5.58241 -3.95949 0.417008 -0.242708 -0.0246114
214 1 4.35594 4.34938 4.3424 -3.60792 0.888428 1.10906 5.08505 -3.92037 -0.142496 0.603788 -0.806455
222 1 1.54559 7.23945 4.29996 2.60978 -1.28947 -2.65909 5.57495 -3.97448 -0.415594 0.165766 -0.408779
224 1 4.45542 7.31972 4.33845 2.28078 -2.16034 3.83898 0.309542 -3.91567 -0.480306 0.441786 -0.698089
312 1 1.51633 4.46751 7.46704 6.58074 -1.87872 -2.48992 0.255671 -3.94838 -0.0166598 -0.302066 -0.124378
314 1 4.38482 4.47065 7.59009 1.38421 -0.500902 1.94911 5.94052 -3.85376 -0.152294 0.0436463 -0.20287
322 1 1.50912 7.24612 7.45227 2.77664 -2.04083 2.3912 0.114402 -3.92631 -0.0777026 -0.552438 0.218707
323 1 3.05231 5.91185 5.86215 -1.31866 2.39502 -0.268551 0.268311 -3.93683 -0.328314 -0.0351745 -0.0316662
324 1 4.3708 7.29584 7.48187 1.4459 0.563605 -1.51929 0.133019 -3.95694 0.102695 -0.190552 -0.352127
226 1 7.22143 7.27669 4.30294 -1.92098 2.73055 -2.00716 0.113225 -3.98396 0.274993 -0.141678 0.340337
316 1 7.10763 4.57462 7.52263 2.31643 -3.52172 -0.258836 0.364395 -3.98444 0.00646827 -1.04061 -0.203809
325 1 5.76431 5.8264 5.80047 -2.43851 2.57701 -2.10025 0.273245 -3.95795 -0.114744 0.323862 0.211144
326 1 7.19795 7.24786 7.4301 -1.71798 -0.00966545 0.572563 0.275376 -4.013 -0.440542 0.568787 -0.191686
327 1 8.55272 5.78657 6.01581 -1.12912 -0.410511 1.0442 0.564835 -3.93688 0.0377677 0.262268 -0.741198
228 1 9.92162 7.27115 4.38749 0.0778168 -0.255412 1.79302 0.271871 -3.95793 -0.103541 -0.0930318 0.122139
321 1 14.1448 5.82456 5.90381 4.06995 0.134137 -0.309495 0.201847 -3.93782 0.470006 0.308439 -0.391107
318 1 9.98504 4.43593 7.48599 1.75132 -4.65897 3.2673 0.090587 -3.98571 -0.0325817 0.246441 0.138535
320 1 12.7757 4.48205 7.4932 1.89733 -3.11783 2.82706 0.1893 -3.91382 -0.011331 -0.497468 0.250911
328 1 10.0129 7.28399 7.36056 2.65819 -0.927283 -2.4793 0.544658 -3.93876 -0.146737 0.02422 0.151711
329 1 11.4291 5.87426 5.88551 1.9858 -1.38951 -0.786356 0.0765886 -3.95909 -0.180201 -0.199354 -0.670897
330 1 12.8425 7.28945 7.5159 -1.97867 0.420953 -1.07444 0.0974016 -4.01823 0.0157506 -0.109371 0.282731
232 1 1.56015 10.1641 4.31758 2.12226 0.0705619 -0.681687 0.223429 -3.99577 -0.254827 -0.332483 -0.665815
332 1 1.46321 10.1244 7.551 1.59487 2.03124 0.780371 0.286461 -3.96167 -0.247761 -0.152972 -0.107653