ITEM: TIMESTEP
176000
ITEM: NUMBER OF ATOMS
2000
ITEM: BOX BOUNDS pp pp pp
1.0838953229856951e-01 1.4221610467701321e+01
2.1677906459713903e-01 2.8443220935402643e+01
-4.5342956400674908e+00 6.1854295640067050e+01
ITEM: ATOMS id type x y z vx vy vz c_csym c_peratom fx fy fz
2 1 1.62332 1.66863 -2.8661 -0.282889 -3.25185 -0.636516 0.280134 -3.93184 -0.185908 -0.279006 -0.409782
4 1 4.35789 1.61575 -2.94669 0.990702 -5.33602 3.45801 6.09309 -3.90759 -0.0941105 -0.0605563 0.51096
11 1 0.115605 3.14255 -4.48067 0.617832 -0.194419 3.50607 0.257284 -3.8437 -0.300198 -0.10302 -0.119928
101 1 0.126621 0.284403 -1.24515 -1.57173 1.46596 2.1275 0.15391 -3.96918 -0.0546236 0.202148 0.115814
103 1 2.85007 0.270771 -1.17858 0.287695 0.367304 -1.8153 0.251816 -3.81763 0.618917 -0.0173246 0.243195
111 1 0.168447 3.08626 -1.2156 -2.2925 0.592843 0.179022 6.25896 -3.91445 -0.063553 -0.0379476 -0.411703
113 1 2.87763 3.13123 -1.15362 -1.71434 2.42111 -1.1208 6.01154 -3.87935 -0.150729 -0.0106332 0.0932636
13 1 2.94284 3.10367 -4.51305 -0.0706192 -1.95523 0.774801 0.0772335 -3.86389 -0.408958 -0.176464 0.150312
6 1 7.17995 1.58532 -2.87365 -1.53139 -1.81767 -2.43971 0.23703 -3.90026 0.0783899 0.721474 0.0830073
17 1 8.63608 3.25517 -4.457 -1.24355 -0.0988133 -0.860341 10.1402 -3.89665 -0.245207 -0.580169 -0.346011
105 1 5.90739 0.22905 -1.21398 0.812795 -1.48127 -4.16198 0.297279 -3.90308 -0.645982 -0.115837 -0.250106
115 1 5.79048 3.13764 -1.23044 -0.932742 0.818202 0.0439582 0.187522 -3.88867 -0.359929 -0.688373 0.29554
117 1 8.60233 3.08029 -1.1407 0.475293 0.415756 -1.302 0.184702 -3.87295 0.136459 0.0371544 -0.858631
15 1 5.86915 3.09703 -4.47051 -1.1078 -3.23994 -0.243916 0.309112 -3.82459 -0.555736 0.363212 -0.321178
8 1 9.98472 1.71462 -3.00239 1.02028 2.64764 -1.65962 0.467141 -3.89187 -0.0643877 -0.0243028 0.318677
9 1 11.3244 0.287262 -4.42223 -0.628437 1.37052 0.162777 5.74499 -3.88914 0.939533 -0.184917 0.0130715
10 1 12.8557 1.68831 -2.9461 -0.261261 2.58464 0.684826 0.152336 -3.87592 -0.305427 0.114579 0.183555
109 1 11.3921 0.306018 -1.24737 4.17545 -4.26001 3.01885 6.80716 -3.88008 0.0261486 -0.436589 -0.482444
119 1 11.4562 3.11085 -1.30775 -0.877516 0.612354 1.13148 0.168317 -3.92429 -0.283342 -0.690933 0.326049
12 1 1.52356 4.6359 -2.9802 1.18436 1.40208 1.05812 6.04196 -3.87701 -0.103771 -0.68572 0.650155
14 1 4.34915 4.42365 -2.76232 -0.761965 1.11821 -1.53086 0.286497 -3.93965 0.146306 0.0871686 -0.416255
22 1 1.54026 7.32431 -2.94976 0.529166 1.27637 -0.648244 6.07393 -3.85783 -0.319935 0.0604537 0.488415
23 1 3.01689 5.92797 -4.50357 4.21453 0.286138 -0.65637 5.93365 -3.86456 -0.346009 -0.251883 -0.519928
24 1 4.35552 7.36387 -2.87169 0.718611 1.41969 0.425215 0.116318 -3.88975 -0.406252 0.166621 0.259854
121 1 0.132435 5.82793 -1.22334 -2.35864 3.10392 -0.471262 0.200002 -3.87454 -0.12254 0.398259 0.44105
123 1 3.01618 5.86763 -1.11741 1.00139 1.8653 -1.24788 6.04474 -3.88601 -0.612604 -0.191271 -0.179368
16 1 7.14135 4.5226 -2.7859 0.603539 0.154603 0.133915 0.172574 -3.92984 0.0385613 -0.186748 -0.409432
25 1 5.70759 5.92495 -4.40313 -0.827089 1.1553 2.35682 5.24481 -3.9319 0.515404 -0.664743 -0.57186
26 1 7.1412 7.16975 -2.9268 -0.0337704 2.62343 0.778117 5.4338 -3.83554 -0.310667 1.07386 0.382382
125 1 5.74127 5.95799 -1.17516 -0.136011 -2.75282 -0.154075 0.140044 -4.00242 -0.0153487 -0.056621 -0.0841754
127 1 8.57446 5.88387 -1.32577 -1.51658 -3.67076 0.00771245 0.428615 -3.86595 0.142285 0.171277 0.16793
18 1 10.0587 4.47472 -2.87005 2.01504 1.15568 0.108705 0.226237 -3.92211 0.0689065 0.275697 0.196557
20 1 12.7939 4.54238 -2.90747 -0.022531 3.00342 -1.17168 0.0679446 -3.97315 0.36086 0.213475 0.412622
28 1 10.1169 7.35391 -2.77083 1.08986 -1.21663 1.80841 5.73369 -3.89498 -0.569093 -0.471867 -0.186513
29 1 11.4127 5.98723 -4.51444 1.3822 1.47477 -0.555896 0.0550432 -3.93071 -0.45821 -0.139261 -0.041115
30 1 12.8531 7.28188 -2.80243 0.362699 -0.519128 0.486825 0.141287 -3.93716 -0.263436 0.452397 -0.0548937
129 1 11.3642 5.90889 -1.16721 -0.995542 1.01394 2.2528 0.116978 -3.98338 0.268519 -0.000901142 -0.183946
32 1 1.48279 10.1923 -2.94695 2.66336 -1.18469 0.933482 0.260633 -3.98684 0.20071 -0.448849 0.149458
34 1 4.32744 10.195 -2.94593 -3.42019 -1.92301 1.41173 0.212179 -3.89461 0.0254462 -0.0234349 0.280213
43 1 2.92107 11.628 -4.50931 2.17426 0.782241 3.50485 0.129235 -3.99897 -0.125385 -0.50511 -0.512635
133 1 2.87707 8.77788 -1.18616 -1.44944 0.975575 0.710255 0.0952892 -3.81786 0.406904 -0.0572233 0.263347
141 1 0.146359 11.6297 -1.31359 -2.20193 -7.04944 -1.51669 0.36197 -3.9467 0.152024 -0.26475 0.649224
143 1 2.92416 11.521 -1.21246 -0.572232 1.1909 1.77002 0.173077 -3.9751 -0.204915 -0.0483824 -0.647179
36 1 7.17897 10.1662 -2.819 0.10168 3.47717 0.174941 5.76267 -3.83217 -0.15095 -0.42754 -0.233858
47 1 8.63625 11.4798 -4.41919 -1.46078 2.66256 0.234251 0.311544 -3.90763 -0.496285 0.17512 -0.366895
135 1 5.71447 8.72482 -1.10114 -0.880733 0.590278 -0.109653 5.95672 -3.84286 0.466501 0.243257 -0.475886
137 1 8.61908 8.74613 -1.28469 -4.19951 1.4167 -2.48788 0.398936 -3.91768 -0.287467 0.0771157 0.0416573
145 1 5.78797 11.4174 -1.20957 0.913579 -3.10787 0.676852 5.98298 -3.87055 -0.410702 0.308556 0.349796
147 1 8.63173 11.5707 -1.09494 -2.52053 -2.66134 -2.016 0.210886 -3.91953 -0.386587 0.498915 -0.936335
37 1 8.64539 8.6808 -4.38589 -0.410704 1.96136 0.795798 5.66371 -3.95619 -0.471311 0.406718 -0.130886
41 1 14.1834 11.5242 -4.42358 -1.35835 -5.95404 3.83557 0.272441 -3.94415 -0.148155 0.0801304 -0.19401
131 1 14.189 8.78043 -1.07782 -1.59748 2.05417 3.03081 6.0658 -3.83303 0.501765 -0.461226 -0.253824
38 1 10.1092 10.2499 -2.74259 0.647054 3.02786 -2.05404 0.506756 -3.93388 -0.37652 -0.357018 0.342582
39 1 11.3428 8.78317 -4.47578 2.80774 -0.622395 -1.00191 5.45085 -3.91785 0.284105 -0.267987 0.185422
40 1 12.8549 10.1114 -2.72305 -1.75728 -0.634733 -0.267602 0.274523 -3.91461 -0.384848 -0.294889 -0.590383
139 1 11.4119 8.69776 -1.11543 -0.425376 2.4171 -0.0430739 0.117373 -3.98462 0.392358 0.452418 -0.131322
149 1 11.4267 11.5446 -1.11444 -0.904464 -0.906018 0.248794 0.188778 -3.94386 0.289196 0.373025 -0.202261
49 1 11.351 11.4979 -4.44379 -3.94296 -1.72452 -3.57845 0.149969 -3.88478 0.110977 0.0953925 -0.137659
42 1 1.60077 12.9976 -2.96543 -0.841826 -0.173751 0.753914 5.57226 -3.90541 -0.802969 0.0886858 0.521811
44 1 4.30049 12.9516 -2.98245 -1.17519 0.372824 -0.13007 6.35394 -3.96822 0.59248 0.155711 0.0238944
52 1 1.58776 15.7356 -2.70827 -0.585983 1.26946 1.71295 5.36719 -3.76633 -0.243209 -0.112467 -0.302241
54 1 4.38463 15.6552 -2.87543 0.269637 0.959657 1.9614 6.01902 -3.95763 -0.425035 0.250446 -0.130397
153 1 2.9946 14.2978 -1.19776 -3.03426 -0.361765 3.65674 0.171117 -3.88417 -0.20861 0.239673 -0.0990837
46 1 7.13899 12.8477 -2.90299 -0.042375 -0.703018 -2.37022 5.45973 -3.88386 0.117778 0.21133 0.0732095
56 1 7.08452 15.7726 -2.96405 0.19616 0.505449 -1.21975 0.284442 -3.97083 0.0788223 -0.37679 -0.09203
155 1 5.76502 14.3443 -1.26152 -0.699273 2.50818 -2.71856 0.106262 -3.90873 -0.0386164 0.183235 0.156828
157 1 8.53251 14.4644 -1.16732 1.77519 1.9958 -4.01974 5.42209 -3.89083 -0.173464 -0.0987735 0.183971
57 1 8.49816 14.3386 -4.37677 5.27468 2.46447 0.151665 0.582511 -3.79565 -0.0952942 0.0151068 -1.0578
51 1 14.0057 14.3518 -4.53383 5.08997 3.62125 -2.07853 9.95208 -3.82219 1.14431 -0.238814 -0.164009
151 1 14.2009 14.4155 -1.18835 -4.71089 2.01634 -0.85659 0.13414 -3.82007 -0.100865 -0.493626 -0.100761
48 1 9.93985 13.0563 -2.84621 2.86016 2.34417 0.701272 5.46816 -3.90713 0.19119 -0.662131 -0.077508
50 1 12.7181 12.9904 -2.84924 0.559624 -1.36974 -0.820506 0.193352 -3.9098 -0.202321 -0.371901 -0.135438
58 1 9.99316 15.7186 -2.86642 -3.3381 -1.51398 5.38263 0.189969 -3.96737 -0.0400508 0.233088 0.145336
60 1 12.7967 15.7437 -2.86011 1.53771 1.90327 -4.70531 0.117378 -3.97574 -0.364964 0.0998847 0.776028
159 1 11.3491 14.3264 -1.13227 -0.265735 -1.65506 -3.98071 0.15854 -3.91923 0.285025 0.152839 0.0944554
62 1 1.43944 18.5161 -2.82033 0.272627 0.831543 -0.200207 0.119208 -3.86833 0.475845 0.389972 -0.537813
64 1 4.38586 18.6552 -2.81567 1.24428 1.0664 2.86252 5.60277 -3.88195 -0.233334 -0.901704 0.289723
163 1 2.94245 17.1558 -1.31509 0.341627 2.40032 0.506019 0.439611 -3.90159 0.0705225 -0.0551505 0.169496
171 1 0.141802 19.9783 -1.09064 -0.0590841 -1.37942 4.27312 0.187677 -3.96869 -0.636577 0.0130819 -0.309424
173 1 2.89555 19.9823 -1.22233 0.785649 -1.23368 2.3689 0.155403 -3.95486 -0.408729 -0.02639 0.0930568
66 1 7.24355 18.6165 -2.81653 2.75597 -4.35103 0.905848 5.06202 -3.95148 -0.804939 0.192508 -0.273758
67 1 8.57677 17.1461 -4.50734 -4.30079 -3.56988 1.31798 0.0496505 -3.99864 -0.400063 -0.151416 0.381563
165 1 5.78304 17.093 -1.2716 1.97311 1.99329 -0.167527 0.253684 -3.91067 0.028039 0.19648 0.129682
167 1 8.56005 17.078 -1.33092 1.63712 1.01306 -0.622391 4.99144 -3.93709 -0.034161 -0.0424575 0.660846
175 1 5.70632 20.007 -1.19348 -3.42076 -2.85137 2.01629 0.141281 -3.92472 0.440699 -0.210544 -0.201071
177 1 8.58858 20.043 -0.964973 -1.05917 0.80188 -0.731301 5.48163 -3.87049 0.217099 -0.532791 -0.922126
75 1 5.71713 19.9361 -4.5238 -4.53949 -0.9021 2.29786 6.56595 -3.89729 0.117058 0.418983 -0.556659
65 1 5.67248 17.193 -4.48142 -1.31158 -3.63153 -0.620776 0.352287 -3.93264 0.421895 0.0054831 -0.420929
161 1 14.1852 17.2046 -1.08483 -8.06951 -0.86164 0.0732044 0.236625 -3.98104 0.0291537 0.428652 -0.586429
68 1 9.83757 18.5862 -2.78724 1.01621 0.95189 3.77626 5.67591 -3.92993 0.901418 0.13692 -0.153334
70 1 12.7582 18.5098 -2.83222 -2.75978 -0.241021 0.901339 0.162611 -3.83119 0.314065 0.326615 0.0742361
169 1 11.4357 17.1907 -1.20521 -0.050047 0.778513 1.36961 0.116199 -3.89774 -0.351414 -0.0687243 0.0885794
179 1 11.4548 19.9395 -1.11026 0.478562 4.61523 -0.247094 6.2792 -3.93187 -0.313971 0.0348897 -0.242622
69 1 11.3235 17.1806 -4.41675 2.51938 -0.439877 2.89062 5.81069 -3.89177 0.388119 -0.293185 -0.324893
71 1 14.189 20.001 -4.40934 -3.02828 1.71166 0.793185 0.327501 -3.79923 -0.166077 -0.401986 -0.314314
61 1 14.2026 17.0274 -4.45415 -2.79754 0.110739 5.17862 5.36056 -3.84629 -0.013929 0.41899 -0.10053
72 1 1.54936 21.3951 -2.9241 2.3338 -3.4761 -2.56089 6.06217 -3.97842 -0.520986 -0.395238 -0.0935703
74 1 4.24289 21.3195 -2.78014 -0.775897 2.76848 -0.309503 5.32473 -4.04762 0.479373 0.173204 -0.277832
82 1 1.5098 24.075 -3.00458 -0.197856 1.54937 -4.05427 0.312577 -3.95231 0.168901 0.419622 -0.19031
84 1 4.24694 24.1216 -2.84198 1.75243 2.83472 -4.12876 5.40064 -3.87969 0.239717 0.363465 -0.16239
181 1 0.128659 22.763 -1.26232 -3.03311 -1.67311 -0.629939 0.0497979 -3.96056 0.0926354 -0.376344 0.0869208
183 1 2.89382 22.7594 -1.30937 0.572942 -1.11899 -0.365379 0.184076 -4.02668 -0.176222 0.0575304 0.767066
76 1 7.14056 21.2635 -2.87104 -0.691281 0.193514 1.05787 5.6866 -3.7792 0.260985 0.414207 -0.0911263
86 1 7.25436 24.2668 -2.86813 -2.43118 3.29649 -1.15762 6.05747 -3.78998 -0.285673 -0.350858 0.166171
185 1 5.72509 22.8979 -1.30375 3.67767 -2.14848 -3.35625 5.77367 -3.94713 -0.0165806 -0.957021 0.222754
187 1 8.47118 22.692 -1.11396 -0.732136 -0.532565 -1.73565 5.54726 -3.90075 -0.0198298 -0.171032 -0.639447
78 1 9.92402 21.3232 -2.9325 -2.14879 -1.2859 1.20999 5.86891 -3.90317 -0.283006 0.404437 0.52952
80 1 12.7264 21.3466 -2.84949 -2.02506 0.894117 1.33119 0.0665019 -3.87906 0.361393 0.342942 -0.0422398
88 1 9.99398 24.1702 -2.82298 -1.34963 2.3224 -3.76156 0.223765 -3.86412 -0.0266554 0.0388308 -0.159705
90 1 12.8226 24.1983 -2.96914 -3.32555 -1.34099 0.789537 0.192775 -3.84361 -0.457728 0.0397738 0.257295
189 1 11.404 22.6532 -1.28234 1.1462 2.87937 3.03823 0.299876 -3.82909 0.491271 0.332925 0.30697
92 1 1.49183 27.0716 -2.88286 -1.55268 0.823337 -0.21304 0.070722 -3.85698 -0.185465 -0.360339 -0.169318
93 1 2.95679 25.6072 -4.51256 -2.98218 -1.24306 2.03838 0.186178 -3.8588 -0.0904676 -0.056841 -0.275895
94 1 4.31233 27.0701 -2.70802 -2.42482 -0.468398 -1.32983 0.758164 -3.85782 -0.0680171 0.0279339 -0.487141
193 1 2.87926 25.4829 -1.29298 -1.0862 0.475835 1.41936 5.81653 -3.88342 -0.204562 0.418833 0.382311
5 1 5.72241 28.2956 -4.4451 2.69086 -0.906142 0.0342517 5.32079 -3.9023 -0.318776 0.322449 -0.240742
107 1 8.62684 28.3911 -1.17436 1.62718 -2.83475 -3.52836 5.9277 -3.97041 -0.246334 0.424475 -0.770774
96 1 7.19496 27.0059 -2.88041 3.8854 -2.09663 -3.2721 5.77274 -3.98434 -0.240756 -0.322231 0.242507
195 1 5.7699 25.6353 -1.27636 -1.7019 -1.17403 1.74296 6.14728 -3.82068 0.100518 -0.242369 0.559829
197 1 8.65402 25.6862 -1.21794 -0.592902 -0.620959 0.00800132 0.334664 -3.97547 -0.5829 -0.628327 0.0551211
7 1 8.51249 28.4072 -4.42177 0.305773 -1.36188 3.04787 0.37553 -3.91401 -0.173396 0.357813 -0.717334
191 1 14.1954 25.5315 -1.26615 -0.0885336 -4.4938 -0.48509 0.210619 -3.83905 0.314809 0.0527533 -0.539258
98 1 9.85719 27.0277 -2.92937 2.60699 4.64685 0.62246 5.77159 -4.00027 0.901646 -0.0959788 -0.0476582
100 1 12.8111 27.1397 -2.86865 0.688756 2.41483 -3.36628 0.112861 -3.88216 -0.180788 -0.172446 0.0675069
199 1 11.3947 25.7747 -1.21619 -1.77748 -0.753815 0.440887 5.61759 -3.8366 0.527235 -0.477286 -0.0912288
99 1 11.3966 25.6653 -4.46533 -3.11862 -0.640777 0.494149 0.146783 -3.91826 0.116708 -0.306122 0.181448
102 1 1.43258 1.58866 0.474363 7.38627 -3.29026 1.48818 0.302773 -3.9738 0.212326 0.0905581 0.282877
104 1 4.40471 1.70471 0.37509 -2.62904 -0.431866 -2.50035 0.242236 -3.86116 -0.505586 0.240646 -0.0281111
202 1 1.64591 1.56967 3.63755 2.02744 3.5456 -1.59179 4.89127 -3.99859 -0.743796 0.323029 0.019604
203 1 2.94499 0.259696 2.0576 -1.3304 -3.48688 0.0854903 0.13295 -4.00643 0.408066 -0.00807232 -0.36686
204 1 4.18458 1.68524 3.72686 -0.935437 1.48785 2.63114 10.2077 -3.94228 1.26046 -0.277711 -0.397917
213 1 2.88677 3.08084 2.01992 -2.28947 -0.845795 -1.07431 0.37765 -3.9442 0.257251 -0.366687 0.33313
106 1 7.15632 1.63052 0.358517 0.736671 -1.16949 0.0239501 0.263604 -3.99359 0.33633 0.173823 0.349543
205 1 5.64874 0.299036 1.90971 2.33469 0.995414 0.291621 9.59898 -3.83622 0.631371 -0.564224 0.562563
206 1 7.2548 1.68985 3.6845 -1.46106 -1.55409 1.7364 10.6974 -3.88289 -0.254209 -0.704179 0.324383
207 1 8.58474 0.236208 2.141 1.31666 3.04051 1.49325 0.165506 -3.90778 0.30328 -0.0175327 -0.404126
215 1 5.78167 2.95842 2.1986 -1.49422 -2.50707 3.51511 0.55683 -3.88706 -0.297968 0.611625 -0.411952
217 1 8.60442 3.0921 2.08307 -1.80041 2.92479 -5.24384 0.124567 -3.97787 -0.492463 -0.133031 -0.172725
201 1 14.2143 0.277593 2.145 -0.76465 1.66164 -3.30675 0.33706 -3.93507 -0.0559482 -0.372849 0.213488
211 1 14.1953 3.09372 2.20422 0.131749 -3.47244 0.658656 0.301685 -3.85365 0.0707348 -0.438197 -0.278086
108 1 9.98023 1.81548 0.498087 1.78008 -0.0382443 0.481447 5.93076 -3.82579 0.441918 -0.71023 0.00494043
110 1 12.7567 1.63776 0.399176 0.143622 0.261967 0.471904 0.169153 -3.81155 0.48055 0.270088 0.527361
219 1 11.4042 3.08595 2.1103 2.96876 -3.6 -0.306264 0.0671795 -3.87669 -0.0660101 0.221 -0.108897
112 1 1.47335 4.44722 0.566132 -2.08488 5.53109 1.88305 0.263668 -3.88573 -0.0433045 0.678171 -0.397051
114 1 4.45714 4.53943 0.579745 0.408107 -1.46821 1.68028 5.46467 -3.94438 -0.572261 -0.597256 -0.37852
122 1 1.5387 7.19477 0.530123 -2.178 2.10286 -1.52883 0.271062 -3.8024 -0.157743 0.562949 -0.112734
124 1 4.30599 7.3213 0.505271 -1.70609 -0.894295 0.386355 0.162963 -3.90067 -0.128665 0.155 0.0267246
223 1 3.00176 5.86832 2.15355 -2.9209 -3.41332 -1.19244 0.120952 -3.93231 0.100633 -0.0795106 0.191597
116 1 7.08446 4.43511 0.505736 -0.717838 -0.661302 1.69127 5.58257 -3.90739 0.698532 0.141451 0.165831
126 1 7.33953 7.39572 0.482695 1.37971 -3.46356 0.697126 5.80679 -3.81132 -0.597729 -0.59291 -0.29494
216 1 7.15048 4.45322 3.6391 0.663868 1.20315 1.59813 0.374621 -3.977 0.241684 0.256739 0.258028
225 1 5.7941 6.05956 2.06036 0.299468 -1.75276 -1.18853 5.85834 -3.87561 0.342054 -0.680122 0.221418
227 1 8.61587 5.8789 2.06756 -0.532809 -0.371899 0.126652 0.145745 -3.90521 -0.286711 0.080394 0.190193
221 1 14.1524 5.86373 2.16895 0.796103 -1.93786 -0.0692733 0.137435 -3.93379 0.284407 0.265442 -0.0282502
118 1 10.0291 4.4796 0.465221 -2.00022 0.251406 -1.34662 5.82151 -3.9881 -0.477633 0.143746 -0.438153
120 1 12.7727 4.51546 0.39533 -2.93314 -0.0391201 0.674702 0.128467 -3.92738 0.416798 -0.472576 0.643227
128 1 10.0124 7.32217 0.411964 -2.7644 2.28321 3.1472 5.87942 -3.97601 -0.659313 -0.278232 0.309894
130 1 12.7448 7.26336 0.418429 -1.8326 -3.86476 -3.53257 0.17925 -3.93837 0.0985319 -0.268587 0.0633583
218 1 9.92391 4.44006 3.76213 2.54663 2.02038 1.45237 0.0907986 -3.95121 0.400233 -0.0632135 -0.006143
220 1 12.7806 4.44772 3.75315 -0.879614 -1.25736 1.20844 0.067357 -3.8286 -0.394714 0.096043 0.534346
229 1 11.2652 5.91426 2.14685 0.58398 1.74186 -1.1864 5.48848 -3.95199 1.01228 -0.153655 0.268813
230 1 12.8446 7.35538 3.67131 2.31232 0.678649 1.21522 0.286894 -3.91395 -0.51752 -0.285041 0.194686
132 1 1.49806 10.2454 0.374957 0.926583 1.77752 2.20689 0.213694 -3.91772 0.19566 -0.522114 0.141237
134 1 4.33421 10.2257 0.524897 -1.95039 -2.01599 -1.69927 5.7253 -3.87624 0.109522 -0.67868 -0.29683
233 1 2.86938 8.7146 2.17178 -0.683116 0.194601 5.31636 0.151243 -3.80195 0.0376775 -0.306569 -0.425452
234 1 4.30212 10.2221 3.75987 -0.621179 0.157015 -0.123602 5.74145 -3.8791 0.223669 -0.302211 -0.201979
241 1 0.149986 11.5192 2.06192 -2.41095 0.904273 -0.0212207 0.0981038 -3.96033 0.00199102 0.0364447 0.29899
243 1 2.87755 11.525 2.00418 -0.234391 0.744033 0.670144 0.275462 -3.93688 0.348182 0.180449 0.379118
136 1 7.34978 10.1327 0.500136 0.629619 0.98562 1.20116 5.26991 -3.98112 -0.867559 -0.00140109 0.0741323
235 1 5.87066 8.81598 2.0304 0.465343 -1.43871 1.4062 0.413842 -3.90474 -0.434352 -0.100206 0.3387
237 1 8.63235 8.75913 2.27454 2.56455 0.935182 0.542097 0.427309 -4.01205 -0.443087 0.122095 -0.634018
245 1 5.87987 11.5851 2.10117 0.240801 -0.541356 -0.243051 0.427407 -3.90163 -0.435883 0.181724 0.293318
247 1 8.6244 11.498 2.2208 0.432483 -3.51449 2.45946 6.16476 -3.99567 0.0216096 0.328213 -0.28721
231 1 14.2058 8.74973 2.06079 -0.187028 1.52542 1.17023 0.0893773 -3.93933 0.589662 -0.392556 -0.139252
138 1 9.92992 10.142 0.426718 -1.64946 -2.47072 4.24093 5.53997 -3.99824 0.885317 -0.367698 0.286321
140 1 12.8378 10.2224 0.435673 -3.06779 0.590986 0.953237 5.54327 -3.95772 -0.198955 -0.189409 0.135808
239 1 11.364 8.67474 2.06887 1.07823 -1.10089 5.00007 0.106665 -3.93739 0.0259223 -0.0810516 -0.187685
240 1 12.788 10.0949 3.59455 0.473313 1.12475 -2.36237 10.6554 -3.85916 0.150149 0.227989 0.929618
249 1 11.3994 11.5636 2.20898 0.00818624 4.09037 -1.73351 0.28208 -3.94171 -0.250102 -0.0550962 -0.575862
142 1 1.52181 13.0509 0.548456 -1.28477 -4.17543 2.9049 0.389205 -3.91949 0.16175 -0.160267 -0.227223
144 1 4.29805 12.8216 0.363578 1.81958 -2.20134 0.0142737 5.15126 -3.89499 0.647694 1.00158 0.531522
152 1 1.51339 15.8576 0.521856 -0.669006 2.84052 -0.820189 5.67393 -4.01148 0.462746 -0.911239 -0.0741848
154 1 4.25725 15.7179 0.427018 2.46855 -1.35996 -1.82568 0.314488 -3.8914 0.377129 0.567242 -0.021177
242 1 1.53992 12.9165 3.72587 0.280113 3.4737 -1.1283 0.134359 -3.95764 0.495535 0.391173 0.056872
244 1 4.24982 12.7782 3.75548 2.14938 -0.0921022 -0.749942 5.68586 -3.88396 0.457342 0.658261 -0.329324
251 1 0.128475 14.4623 2.17154 2.68999 -0.1114 0.508103 0.240508 -3.91253 -0.269133 -0.286217 -0.00153767
252 1 1.63436 15.7834 3.62848 -3.12021 0.366244 0.726554 4.86524 -3.86242 0.134827 -0.0038017 0.1726
253 1 3.02926 14.3678 2.14348 0.643288 -2.70259 -2.00417 0.375825 -3.91251 -0.227061 -0.0579174 -0.246919
146 1 7.13468 12.9886 0.442997 1.04428 0.1527 -2.62964 0.134964 -3.80242 0.389545 -0.0872008 0.227261
156 1 7.1141 15.8395 0.47294 -5.45427 -4.00032 2.42238 0.309726 -3.9241 0.281435 0.0770138 -0.218465
255 1 5.79332 14.3612 2.05131 0.949383 2.2935 -3.25327 6.30494 -3.88768 -0.158298 -0.137302 0.0861866
256 1 7.19239 15.8423 3.65253 -0.861153 0.781607 -0.146585 0.420746 -3.97403 0.49723 -0.447946 0.518706
257 1 8.60857 14.4287 2.16178 -2.00567 3.54744 2.76289 0.0783778 -3.88744 -0.395072 -0.476484 -0.311435
148 1 10.0789 12.8625 0.551222 2.53119 -0.204599 1.59625 5.48951 -3.88151 -0.597628 0.330232 -0.0290146
150 1 12.8144 12.9078 0.513567 0.842405 -1.04171 -0.584461 0.169583 -3.97244 0.356173 0.175729 -0.0033506
158 1 10.0599 15.8093 0.532286 1.95172 -4.28031 -2.67566 0.278688 -3.84584 0.00552679 -0.235013 -0.268462
160 1 12.7974 15.8078 0.421726 2.05154 2.79304 -0.0709358 0.219864 -3.90093 -0.0229837 -0.0391281 0.738151
250 1 12.9049 12.9601 3.70282 1.45982 -1.9964 -1.75047 0.297194 -3.93695 -0.212808 0.143566 0.246593
259 1 11.5154 14.2983 2.09944 2.36546 0.76793 -0.871017 0.272772 -3.96137 -0.790033 0.812522 0.0946449
162 1 1.61205 18.4318 0.457171 0.103087 0.473685 0.329909 5.40878 -3.90678 -0.394071 0.361433 0.155422
164 1 4.41893 18.6151 0.331107 -0.211573 3.22505 -5.20284 0.382711 -3.91121 -0.0939633 -0.235922 0.0613573
262 1 1.64124 18.6991 3.74295 -1.57751 0.894061 -4.43727 5.40611 -3.93666 -0.518901 -0.517265 -0.0536738
263 1 3.02324 17.1738 2.0847 -2.37006 -0.133771 0.32695 0.285341 -3.96754 0.0645404 -0.00424795 0.671735
271 1 0.239882 19.931 1.9834 -2.9132 -1.24747 -1.34561 0.643876 -3.9329 -0.353072 0.176784 0.295646
273 1 3.06119 20.0027 2.10247 0.40391 -0.0741893 3.19324 5.78441 -3.90403 -0.342917 0.176369 -0.380007
166 1 7.16241 18.5363 0.436959 0.698547 0.150344 -2.49931 0.20487 -3.92413 0.0476212 0.176676 -0.0413194
265 1 5.71847 17.1429 2.23419 -1.6126 -0.82668 -3.54668 4.92284 -3.91205 -0.415122 -0.122867 -0.582387
266 1 7.25348 18.553 3.65391 1.95445 3.37989 -0.145865 5.25131 -3.83897 -0.304289 -0.12315 0.284406
267 1 8.63962 17.1234 2.01997 1.62128 1.24999 -1.44411 0.289502 -3.90916 -0.564173 0.575397 0.519057
275 1 5.66392 19.9514 2.1094 0.0670137 -1.38317 -3.87798 5.38917 -3.90893 0.313 0.0137392 -0.109355
277 1 8.52362 20.0544 2.0976 0.898333 -0.0775842 -0.479706 5.00948 -3.92919 0.489781 0.0269735 0.137002
261 1 14.1769 17.1487 2.18679 3.22524 -0.724689 1.23685 5.30063 -3.9607 0.0598912 0.203174 -0.233725
168 1 9.9888 18.5753 0.484107 -3.61858 0.233632 -1.83299 0.238881 -3.87924 -0.0204771 -0.463198 -0.181649
170 1 12.8038 18.6463 0.600749 0.900172 4.64776 -2.52583 0.369699 -3.96267 0.178218 -0.82961 0.0301072
269 1 11.4148 17.1891 2.30333 1.22914 3.37173 -1.05524 0.452877 -3.9205 0.489043 0.253657 -0.751004
270 1 12.909 18.7314 3.74874 -1.75346 -1.91228 -0.862528 5.72125 -3.86265 -0.642306 -0.342475 0.154292
279 1 11.3598 20.0486 2.07353 2.0114 -4.45816 0.994583 0.295475 -3.84393 -0.0682761 -0.146949 0.265391
172 1 1.47279 21.4257 0.487517 2.33301 -0.225112 2.95214 0.294903 -3.93243 0.400246 -0.165842 -0.0214965
174 1 4.32705 21.4567 0.318954 -1.27528 -0.710527 -1.51037 0.304604 -3.9217 0.320381 0.1135 0.44801
182 1 1.5749 24.1646 0.435167 -0.784188 -3.79054 -2.16947 0.066367 -3.93347 -0.564528 -0.0437417 0.50744
184 1 4.3073 24.238 0.388231 -0.587332 0.565944 -1.32797 0.149529 -3.9344 0.0531384 -0.533309 -0.385203
272 1 1.50093 21.4332 3.66032 -1.3891 0.701157 2.48604 0.412749 -3.99067 -0.146526 -0.443782 0.644923
281 1 0.183488 22.7914 2.1682 -2.74019 0.616667 0.622568 0.178602 -3.90601 0.0509522 0.180738 -0.577012
283 1 2.92311 22.8102 2.18774 1.18139 2.06881 4.32688 0.20379 -3.85786 0.34545 0.0230466 -0.0352269
176 1 7.06694 21.3141 0.510281 -3.95137 -1.5893 -1.01736 5.08167 -3.97378 0.405649 0.315577 -0.435795
186 1 7.17879 24.1447 0.333675 2.78581 2.06017 1.88695 0.207952 -3.85648 0.301762 0.72197 0.507696
285 1 5.85589 22.7635 1.96106 1.31531 1.02106 -0.50399 0.600821 -3.84461 -0.756974 0.239619 0.74659
287 1 8.6565 22.7436 2.01147 2.42 3.87829 -0.705154 11.2625 -3.99181 -0.251122 0.459757 0.0135228
178 1 9.99102 21.4199 0.393418 -1.13098 -1.50552 3.15931 0.271687 -4.00319 0.539 -0.465546 0.351948
180 1 12.8404 21.4228 0.538651 -0.471497 0.0061306 0.269058 0.33108 -4.0301 0.0779939 0.356982 0.224819
188 1 10.0407 24.0693 0.277357 -1.30348 -2.27273 0.479064 5.05698 -3.83311 -0.377301 1.02777 -0.0373856
190 1 12.925 24.1389 0.404673 -1.55903 -2.12372 1.13416 11.6201 -3.81137 -0.267573 -0.0102221 0.278201
280 1 12.8739 21.3633 3.67572 1.61778 1.13426 1.57654 5.8561 -3.92454 -0.131341 0.380791 -0.204863
289 1 11.3072 22.8471 2.10348 -3.96248 4.07387 -0.259648 5.33752 -3.94133 0.380013 -0.213816 0.225665
290 1 12.8777 24.1232 3.73705 1.06046 -1.98762 3.24564 0.244593 -3.94507 -0.0409508 0.0581439 0.443256
192 1 1.54582 26.9795 0.471101 0.832332 -0.820942 0.130328 5.49503 -3.91928 -0.351473 -0.14611 -0.258565
194 1 4.33343 27.1078 0.408372 -1.61671 -3.20912 1.28134 0.258465 -3.90398 -0.4526 -0.514399 -0.277279
291 1 0.123486 25.6243 2.23203 -1.91934 -0.395923 -0.219087 0.437237 -3.87618 0.102925 0.0122896 -0.211258
292 1 1.58125 27.1181 3.6445 0.521729 -0.104332 -0.21211 5.56786 -3.9684 0.0403733 -0.62497 -0.0102816
293 1 3.0799 25.6086 2.07288 2.80973 1.17343 -0.298043 6.04486 -3.86339 -0.843737 -0.00894879 0.565389
294 1 4.2495 27.1204 3.7289 -1.17778 2.9951 1.58236 5.19167 -3.91255 0.674115 -0.0643576 -0.00393455
196 1 7.3038 27.0489 0.56337 3.37805 -2.98627 4.17109 5.05769 -3.86722 -0.588822 -0.0707383 -0.668024
295 1 5.73558 25.636 2.05006 2.43808 0.681994 -1.51506 5.41551 -3.90724 0.418535 0.12125 0.244124
296 1 7.17419 27.0665 3.63338 0.309675 6.50899 -1.89168 0.274688 -3.86128 -0.0799433 0.381855 -0.180767
297 1 8.56397 25.5256 2.1009 -0.134748 1.31643 -3.31811 0.370962 -3.87485 0.902159 -0.015233 0.343165
209 1 11.3537 28.3011 2.1742 -0.393176 -1.47754 0.78913 6.18139 -3.77387 0.656131 0.687242 -0.275323
198 1 9.95313 27.0869 0.340562 0.689763 -0.698924 -1.31982 5.36189 -3.80267 0.6102 -0.0951538 0.713283
200 1 13.0099 27.0067 0.399522 5.30296 -0.270392 0.651806 5.76997 -3.82473 -0.813186 0.170017 0.040705
299 1 11.357 25.6421 2.14746 0.613569 6.18239 1.53807 6.52416 -3.76524 0.214842 -0.153499 -0.283745
301 1 0.190771 0.330155 5.27437 0.5675 -0.168496 -2.46061 9.2529 -3.96622 -0.309142 -0.37898 0.0872094
302 1 1.52998 1.64637 7.21618 -1.42736 -3.15682 0.972455 0.341435 -3.91697 0.282303 -0.234196 -0.409957
303 1 2.87995 0.257353 5.44282 0.341516 -0.0404191 -2.60214 5.50917 -3.99085 -0.0236405 -0.440674 -0.219716
304 1 4.29008 1.6221 7.04245 -4.04083 -0.468429 4.02966 0.165237 -3.85295 0.221505 0.643113 0.11397
311 1 0.149724 2.85167 5.43374 -1.74976 0.28104 0.763369 5.42582 -3.83417 -0.313564 1.19862 -0.628897
313 1 2.89377 2.99568 5.30966 0.148637 -0.416692 -0.495992 5.54809 -3.84274 -0.226534 0.316842 0.285496
305 1 5.63949 0.272746 5.4381 -2.6762 0.601797 -1.53878 5.48475 -3.79558 0.783633 0.254156 -0.20818
306 1 7.16827 1.7968 7.07459 -0.497955 1.38302 -0.554626 6.08926 -3.86424 -0.276652 -0.764579 0.108928
307 1 8.54451 0.339894 5.48668 2.06573 -1.47317 -0.377265 0.348018 -3.92824 -0.273996 -0.942523 -0.130225
315 1 5.88369 2.98404 5.34656 0.746495 3.22544 0.384377 5.55442 -3.93846 -0.891336 0.641889 0.0827592
317 1 8.5575 3.091 5.34795 0.877774 1.33708 0.284955 5.82658 -4.05923 -0.544057 0.063905 0.0930543
208 1 9.93587 1.5992 3.7822 -2.11946 3.54369 -4.60115 5.85338 -4.02462 0.197607 0.443254 -0.143551
210 1 12.7168 1.62492 3.81327 1.93469 -2.84729 3.21644 0.365438 -3.89369 -0.0429233 -0.164253 -0.0280994
308 1 9.85407 1.73124 7.02722 -3.32365 0.641461 0.348771 0.211102 -3.92895 0.486331 -0.323092 0.137002
309 1 11.427 0.271834 5.48439 2.261 -0.338001 1.59023 0.166849 -3.90564 0.0208021 -0.203445 -0.335596
310 1 12.8338 1.67333 7.05049 -2.12593 2.9352 -1.91821 0.180799 -3.90461 0.0742553 -0.170956 0.182747
319 1 11.2832 3.0542 5.44211 1.40137 -1.12676 -0.599603 0.112464 -3.96215 0.907913 0.0293243 -0.487115
212 1 1.5107 4.56417 3.78896 1.71349 1.1107 -0.37813 5.67906 -3.92543 0.0972443 -0.724095 0.0975425
214 1 4.35594 4.34938 3.80882 -3.60792 0.888428 1.10906 5.1738 -3.89047 0.176264 0.800376 -0.631752
222 1 1.54559 7.23945 3.76545 2.60978 -1.28947 -2.65909 5.68035 -3.94442 -0.104213 0.139747 -0.408892
224 1 4.45542 7.31972 3.80478 2.28078 -2.16034 3.83898 0.313954 -3.88629 -0.931775 0.4923 -0.374599
312 1 1.51633 4.46751 7.00202 6.58074 -1.87872 -2.48992 0.259294 -3.91304 0.273648 -0.24872 0.103385
314 1 4.38482 4.47065 7.12777 1.38421 -0.500902 1.94911 6.06048 -3.81546 -0.300874 -0.337304 -0.510389
322 1 1.50912 7.24612 6.98693 2.77664 -2.04083 2.3912 0.115827 -3.89108 -0.173086 -0.23064 -0.102558
323 1 3.05231 5.91185 5.36192 -1.31866 2.39502 -0.268551 0.27033 -3.91065 -0.503237 0.0667466 0.393219
324 1 4.3708 7.29584 7.01718 1.4459 0.563605 -1.51929 0.135946 -3.92806 0.206857 -0.275094 -0.0481575
226 1 7.22143 7.27669 3.76849 -1.92098 2.73055 -2.00716 0.114075 -3.95129 0.0618913 0.269258 0.0738796
316 1 7.10763 4.57462 7.05883 2.31643 -3.52172 -0.258836 5.95448 -3.96237 -0.0415195 -0.685504 -0.11507
325 1 5.76431 5.8264 5.29888 -2.43851 2.57701 -2.10025 0.281484 -3.93398 -0.126235 0.225085 0.195013
326 1 7.19795 7.24786 6.96427 -1.71798 -0.00966545 0.572563 0.282181 -3.98859 -0.593723 0.467872 -0.0332314
327 1 8.55272 5.78657 5.51895 -1.12912 -0.410511 1.0442 0.583084 -3.91142 0.156788 0.0600474 -0.679048
228 1 9.92162 7.27115 3.8549 0.0778168 -0.255412 1.79302 0.276556 -3.92532 0.285091 0.0975854 0.0562299
321 1 14.1448 5.82456 5.40449 4.06995 0.134137 -0.309495 0.202882 -3.91158 0.402274 0.180325 -0.632452
318 1 9.98504 4.43593 7.02139 1.75132 -4.65897 3.2673 0.0916456 -3.96699 -0.264167 0.398258 0.292717
320 1 12.7757 4.48205 7.02876 1.89733 -3.11783 2.82706 0.190251 -3.89099 0.329422 -0.327926 0.00486653
328 1 10.0129 7.28399 6.8932 2.65819 -0.927283 -2.4793 4.82972 -3.9066 0.292361 0.0167347 0.654506
329 1 11.4291 5.87426 5.38579 1.9858 -1.38951 -0.786356 0.0781294 -3.93473 0.0805431 0.0321438 -0.354659
330 1 12.8425 7.28945 7.05195 -1.97867 0.420953 -1.07444 0.0987623 -3.99034 0.031777 0.207923 -0.0192362
232 1 1.56015 10.1641 3.78346 2.12226 0.0705619 -0.681687 0.227754 -3.97227 -0.174951 -0.0954296 -0.169041
332 1 1.46321 10.1244 7.08782 1.59487 2.03124 0.780371 5.7539 -3.93558 -0.370235 -0.336876 0.165756