ITEM: TIMESTEP
42000
ITEM: NUMBER OF ATOMS
2000
ITEM: BOX BOUNDS pp pp pp
1.0838953229856951e-01 1.4221610467701321e+01
2.1677906459713903e-01 2.8443220935402643e+01
-7.5195242937955320e-01 5.8071952429379117e+01
ITEM: ATOMS id type x y z vx vy vz c_csym c_peratom fx fy fz
2 1 1.62332 1.66863 0.72616 -0.282889 -3.25185 -0.636516 0.2776 -4.08931 -0.26036 -0.157558 -0.263256
4 1 4.35789 1.61575 0.654752 0.990702 -5.33602 3.45801 0.222419 -4.1242 0.322554 -0.205843 0.391866
11 1 0.115605 3.14255 -0.70444 0.617832 -0.194419 3.50607 0.208419 -4.0483 -0.0899823 -0.198786 -0.421422
101 1 0.126621 0.284403 2.16241 -1.57173 1.46596 2.1275 0.151748 -4.09749 -0.0850699 0.245303 -0.404198
103 1 2.85007 0.270771 2.22139 0.287695 0.367304 -1.8153 0.238477 -3.9904 0.342147 -0.159258 -0.220208
111 1 0.168447 3.08626 2.18859 -2.2925 0.592843 0.179022 0.130817 -4.1289 -0.118282 -0.303728 -0.0940572
113 1 2.87763 3.13123 2.24351 -1.71434 2.42111 -1.1208 0.328123 -4.06455 0.142373 0.120976 0.0537041
13 1 2.94284 3.10367 -0.73313 -0.0706192 -1.95523 0.774801 0.0721291 -4.01719 -0.281184 0.227442 -0.289244
6 1 7.17995 1.58532 0.719473 -1.53139 -1.81767 -2.43971 0.225975 -4.08801 0.327523 0.720838 0.120284
17 1 8.63608 3.25517 -0.683468 -1.24355 -0.0988133 -0.860341 4.95713 -4.05263 -0.630557 -0.83007 -0.182063
105 1 5.90739 0.22905 2.19003 0.812795 -1.48127 -4.16198 0.293942 -4.07168 -0.686618 -0.358672 0.303269
115 1 5.79048 3.13764 2.17545 -0.932742 0.818202 0.0439582 0.180206 -4.03845 -0.439097 -0.307205 0.128082
117 1 8.60233 3.08029 2.25496 0.475293 0.415756 -1.302 0.159885 -4.05124 -0.367419 -0.110187 -0.714576
15 1 5.86915 3.09703 -0.695437 -1.1078 -3.23994 -0.243916 0.289832 -4.00045 -0.509357 0.219943 -0.733199
8 1 9.98472 1.71462 0.605398 1.02028 2.64764 -1.65962 0.380008 -4.04433 -0.620157 0.166431 1.09225
9 1 11.3244 0.287262 -0.652653 -0.628437 1.37052 0.162777 0.386952 -4.04016 1.13709 -0.42529 -0.282355
10 1 12.8557 1.68831 0.655276 -0.261261 2.58464 0.684826 0.132069 -4.02338 -0.318177 0.0943759 0.462204
109 1 11.3921 0.306018 2.16044 4.17545 -4.26001 3.01885 0.167133 -4.07145 -0.0669495 -0.312376 0.0225521
119 1 11.4562 3.11085 2.10694 -0.877516 0.612354 1.13148 0.150781 -4.09939 -0.172008 -0.491652 0.126541
12 1 1.52356 4.6359 0.625058 1.18436 1.40208 1.05812 0.561682 -4.0437 0.178635 -0.714417 0.425019
14 1 4.34915 4.42365 0.818113 -0.761965 1.11821 -1.53086 0.270245 -4.09111 0.0503696 0.183407 -0.592255
22 1 1.54026 7.32431 0.652035 0.529166 1.27637 -0.648244 0.239086 -4.02789 -0.165954 -0.426637 0.636693
23 1 3.01689 5.92797 -0.724725 4.21453 0.286138 -0.65637 0.221993 -4.03094 -0.471621 -0.200638 -0.0846493
24 1 4.35552 7.36387 0.721204 0.718611 1.41969 0.425215 0.105904 -4.02101 -0.359434 0.358244 -0.0789506
121 1 0.132435 5.82793 2.18173 -2.35864 3.10392 -0.471262 0.184114 -4.02803 0.0150059 0.251668 -0.124847
123 1 3.01618 5.86763 2.27559 1.00139 1.8653 -1.24788 0.253344 -4.11546 -0.371272 0.195781 -0.222628
16 1 7.14135 4.5226 0.797226 0.603539 0.154603 0.133915 0.151935 -4.05002 0.0682925 -0.531166 -0.52718
25 1 5.70759 5.92495 -0.635733 -0.827089 1.1553 2.35682 0.31541 -4.12868 -0.281947 -0.479325 -0.498116
26 1 7.1412 7.16975 0.672377 -0.0337704 2.62343 0.778117 4.93374 -3.93224 0.40081 1.12368 0.759676
125 1 5.74127 5.95799 2.22443 -0.136011 -2.75282 -0.154075 0.137871 -4.18373 0.198783 0.369767 -0.153767
127 1 8.57446 5.88387 2.09098 -1.51658 -3.67076 0.00771245 0.357208 -4.0817 0.0693598 -0.286029 0.530322
18 1 10.0587 4.47472 0.722657 2.01504 1.15568 0.108705 0.209992 -4.04835 -0.0401435 0.223863 -0.0318589
20 1 12.7939 4.54238 0.689503 -0.022531 3.00342 -1.17168 0.05916 -4.10976 0.209057 -0.0830348 0.510426
28 1 10.1169 7.35391 0.810574 1.08986 -1.21663 1.80841 0.400243 -4.01939 -0.453788 -0.504498 -0.0916679
29 1 11.4127 5.98723 -0.734358 1.3822 1.47477 -0.555896 0.0535285 -4.11034 -0.489885 -0.166951 -0.20553
30 1 12.8531 7.28188 0.782579 0.362699 -0.519128 0.486825 0.134825 -4.12588 -0.364272 0.696155 -0.0363211
129 1 11.3642 5.90889 2.23147 -0.995542 1.01394 2.2528 0.108084 -4.09847 0.20417 -0.140679 0.0477231
32 1 1.48279 10.1923 0.654519 2.66336 -1.18469 0.933482 0.219248 -4.1267 0.345643 -0.297954 0.384193
34 1 4.32744 10.195 0.655425 -3.42019 -1.92301 1.41173 0.185693 -4.06654 -0.1562 -0.281899 0.53899
43 1 2.92107 11.628 -0.729813 2.17426 0.782241 3.50485 0.113813 -4.09309 -0.0451004 -0.860423 -0.322206
133 1 2.87707 8.77788 2.21468 -1.44944 0.975575 0.710255 0.0899289 -4.05673 0.234967 -0.272174 0.095829
141 1 0.146359 11.6297 2.10177 -2.20193 -7.04944 -1.51669 0.302807 -4.10915 0.303475 0.215809 0.606518
143 1 2.92416 11.521 2.19137 -0.572232 1.1909 1.77002 0.160304 -4.11623 -0.0803454 -0.0361431 -0.205277
36 1 7.17897 10.1662 0.767894 0.10168 3.47717 0.174941 0.162791 -3.98363 -0.18016 -0.263178 0.294922
47 1 8.63625 11.4798 -0.649967 -1.46078 2.66256 0.234251 0.277527 -4.06326 -0.388957 0.195936 -0.299345
135 1 5.71447 8.72482 2.29001 -0.880733 0.590278 -0.109653 0.281811 -4.0724 0.297518 0.0458998 -0.528458
137 1 8.61908 8.74613 2.12737 -4.19951 1.4167 -2.48788 0.352483 -4.09876 -0.474192 -0.459515 -0.056261
145 1 5.78797 11.4174 2.19394 0.913579 -3.10787 0.676852 0.313888 -4.05473 -0.375817 0.436606 0.391601
147 1 8.63173 11.5707 2.2955 -2.52053 -2.66134 -2.016 0.184125 -4.07794 -0.587851 0.723718 -0.873016
37 1 8.64539 8.6808 -0.620458 -0.410704 1.96136 0.795798 0.355591 -4.12748 -0.49978 0.441322 -0.655835
41 1 14.1834 11.5242 -0.653849 -1.35835 -5.95404 3.83557 0.237406 -4.05745 -0.17566 0.661397 -0.481894
131 1 14.189 8.78043 2.31068 -1.59748 2.05417 3.03081 0.384596 -4.00613 0.654226 -0.173837 -0.520793
38 1 10.1092 10.2499 0.8356 0.647054 3.02786 -2.05404 0.491886 -4.06721 -0.921615 -0.713713 -0.0623147
39 1 11.3428 8.78317 -0.700101 2.80774 -0.622395 -1.00191 0.223191 -4.0831 0.35708 -0.151105 0.355122
40 1 12.8549 10.1114 0.852913 -1.75728 -0.634733 -0.267602 0.2356 -4.08856 -0.215434 -0.0172674 -0.634127
139 1 11.4119 8.69776 2.27735 -0.425376 2.4171 -0.0430739 0.107271 -4.09179 0.147603 0.372307 -0.353707
149 1 11.4267 11.5446 2.27823 -0.904464 -0.906018 0.248794 0.172928 -4.06863 -0.268819 -0.0192845 -0.322301
49 1 11.351 11.4979 -0.671761 -3.94296 -1.72452 -3.57845 0.142668 -4.03678 0.517607 0.514075 -0.48464
42 1 1.60077 12.9976 0.638145 -0.841826 -0.173751 0.753914 0.417918 -4.07284 -0.462666 0.0891875 0.583649
44 1 4.30049 12.9516 0.62307 -1.17519 0.372824 -0.13007 0.106375 -4.14302 0.339014 0.174195 0.481616
52 1 1.58776 15.7356 0.866002 -0.585983 1.26946 1.71295 0.657775 -3.98991 -0.570452 -0.056139 -0.945852
54 1 4.38463 15.6552 0.717888 0.269637 0.959657 1.9614 0.265805 -4.08139 -0.289083 0.563874 -0.225413
153 1 2.9946 14.2978 2.2044 -3.03426 -0.361765 3.65674 0.164254 -4.00368 -0.145336 0.351213 0.39665
46 1 7.13899 12.8477 0.693471 -0.042375 -0.703018 -2.37022 0.221689 -4.03141 -0.313045 0.607084 0.286078
56 1 7.08452 15.7726 0.639372 0.19616 0.505449 -1.21975 0.243846 -4.08042 0.467271 -0.0994327 -0.160277
155 1 5.76502 14.3443 2.14791 -0.699273 2.50818 -2.71856 0.102694 -4.08624 0.187819 -0.0643102 0.546857
157 1 8.53251 14.4644 2.23137 1.77519 1.9958 -4.01974 4.96999 -4.09532 0.0013512 -0.210873 0.352069
57 1 8.49816 14.3386 -0.612379 5.27468 2.46447 0.151665 0.478692 -3.98945 0.335513 -0.0581718 -1.16316
51 1 14.0057 14.3518 -0.75154 5.08997 3.62125 -2.07853 4.67355 -3.99506 1.24994 -0.412336 -0.275802
151 1 14.2009 14.4155 2.21273 -4.71089 2.01634 -0.85659 0.119595 -4.00567 0.00742108 -0.405128 -0.0337079
48 1 9.93985 13.0563 0.743783 2.86016 2.34417 0.701272 0.267877 -4.07402 0.395343 -0.814734 0.142631
50 1 12.7181 12.9904 0.7411 0.559624 -1.36974 -0.820506 0.174315 -4.07746 -0.00445688 -0.0439315 0.247893
58 1 9.99316 15.7186 0.725875 -3.3381 -1.51398 5.38263 0.167025 -4.07945 0.193221 0.513564 0.126471
60 1 12.7967 15.7437 0.731468 1.53771 1.90327 -4.70531 0.110604 -4.07069 -0.00799154 0.04703 0.280218
159 1 11.3491 14.3264 2.26243 -0.265735 -1.65506 -3.98071 0.150352 -4.07239 0.59703 0.0571148 -0.617961
62 1 1.43944 18.5161 0.766713 0.272627 0.831543 -0.200207 0.115312 -4.03259 0.380569 0.390797 -0.632345
64 1 4.38586 18.6552 0.770847 1.24428 1.0664 2.86252 5.04941 -4.02391 -0.356376 -0.873226 -0.263813
163 1 2.94245 17.1558 2.10044 0.341627 2.40032 0.506019 0.379827 -4.03317 0.837176 0.115926 0.00543088
171 1 0.141802 19.9783 2.29931 -0.0590841 -1.37942 4.27312 0.165868 -4.12362 -0.152721 -0.286484 -0.371544
173 1 2.89555 19.9823 2.18263 0.785649 -1.23368 2.3689 0.143883 -4.1127 -0.504403 -0.0959724 0.366203
66 1 7.24355 18.6165 0.770077 2.75597 -4.35103 0.905848 0.36162 -4.16025 -0.374145 0.0969527 0.0193044
67 1 8.57677 17.1461 -0.728069 -4.30079 -3.56988 1.31798 0.0495305 -4.14563 -0.436779 -0.0402668 -0.166349
165 1 5.78304 17.093 2.13898 1.97311 1.99329 -0.167527 0.235885 -4.04732 -0.549988 0.420618 0.120683
167 1 8.56005 17.078 2.08641 1.63712 1.01306 -0.622391 4.5641 -4.08105 0.203723 0.182709 1.06811
175 1 5.70632 20.007 2.20819 -3.42076 -2.85137 2.01629 0.131781 -4.05712 0.583283 0.156321 -0.124532
177 1 8.58858 20.043 2.41066 -1.05917 0.80188 -0.731301 0.938208 -3.99814 -0.198542 -0.438254 -0.776428
75 1 5.71713 19.9361 -0.742653 -4.53949 -0.9021 2.29786 0.126331 -4.06912 -0.346737 0.463805 -0.690906
65 1 5.67248 17.193 -0.705101 -1.31158 -3.63153 -0.620776 0.326502 -4.10779 0.417891 -0.283546 -0.02099
161 1 14.1852 17.2046 2.30446 -8.06951 -0.86164 0.0732044 0.208583 -4.12954 -0.275904 0.206757 -0.530553
68 1 9.83757 18.5862 0.796038 1.01621 0.95189 3.77626 0.499731 -4.11382 0.855406 0.717479 -0.359776
70 1 12.7582 18.5098 0.756183 -2.75978 -0.241021 0.901339 0.154498 -4.00639 0.11989 0.763096 -0.652874
169 1 11.4357 17.1907 2.1978 -0.050047 0.778513 1.36961 0.108385 -4.06574 -0.314952 0.0816799 0.0980776
179 1 11.4548 19.9395 2.28193 0.478562 4.61523 -0.247094 0.24376 -4.09194 -0.325609 0.261825 -0.357552
69 1 11.3235 17.1806 -0.647801 2.51938 -0.439877 2.89062 0.206943 -4.07805 0.60004 -0.515352 -0.919071
71 1 14.189 20.001 -0.641237 -3.02828 1.71166 0.793185 0.293761 -3.9557 0.113441 -0.911999 -0.197207
61 1 14.2026 17.0274 -0.680935 -2.79754 0.110739 5.17862 0.287052 -4.02248 -0.0341456 0.0727368 -0.1269
72 1 1.54936 21.3951 0.674768 2.3338 -3.4761 -2.56089 0.171279 -4.13365 -0.189473 -0.249148 -0.309581
74 1 4.24289 21.3195 0.802321 -0.775897 2.76848 -0.309503 0.352454 -4.16788 0.664623 0.0209349 -0.668285
82 1 1.5098 24.075 0.603459 -0.197856 1.54937 -4.05427 0.284312 -4.11521 -0.0189338 0.357986 0.260187
84 1 4.24694 24.1216 0.747532 1.75243 2.83472 -4.12876 0.386212 -4.01584 0.671438 0.805283 -0.360118
181 1 0.128659 22.763 2.1472 -3.03311 -1.67311 -0.629939 0.0460366 -4.08222 0.0192683 -0.567497 -0.281761
183 1 2.89382 22.7594 2.10551 0.572942 -1.11899 -0.365379 0.150523 -4.11255 -0.141896 0.321286 0.800866
76 1 7.14056 21.2635 0.721786 -0.691281 0.193514 1.05787 0.362549 -3.99252 0.135368 0.589004 0.110138
86 1 7.25436 24.2668 0.724365 -2.43118 3.29649 -1.15762 0.396754 -3.95986 -0.272132 -0.447942 -0.53416
185 1 5.72509 22.8979 2.11049 3.67767 -2.14848 -3.35625 0.462912 -4.08357 0.332273 -0.870135 -0.135987
187 1 8.47118 22.692 2.27865 -0.732136 -0.532565 -1.73565 0.566531 -4.07842 0.690402 -0.141847 -0.601545
78 1 9.92402 21.3232 0.667324 -2.14879 -1.2859 1.20999 0.21262 -4.08822 -0.186601 0.0443915 0.539356
80 1 12.7264 21.3466 0.740879 -2.02506 0.894117 1.33119 0.0632849 -4.03409 0.562726 -0.00378837 -0.0254554
88 1 9.99398 24.1702 0.764364 -1.34963 2.3224 -3.76156 0.194193 -4.10456 -0.492665 0.295964 -0.137131
90 1 12.8226 24.1983 0.634862 -3.32555 -1.34099 0.789537 0.175892 -4.04985 -0.524535 -0.0267387 0.373029
189 1 11.404 22.6532 2.12946 1.1462 2.87937 3.03823 0.282656 -3.99577 -0.00780738 0.544774 0.109157
92 1 1.49183 27.0716 0.711306 -1.55268 0.823337 -0.21304 0.0682043 -4.05877 -0.237428 -0.562612 0.30329
93 1 2.95679 25.6072 -0.732698 -2.98218 -1.24306 2.03838 0.162443 -4.08967 -0.0246646 0.0434932 -0.336806
94 1 4.31233 27.0701 0.86623 -2.42482 -0.468398 -1.32983 0.639362 -4.00448 -0.331412 -0.0502595 -0.459366
193 1 2.87926 25.4829 2.12003 -1.0862 0.475835 1.41936 0.402562 -4.0183 -0.141917 0.614379 0.230284
5 1 5.72241 28.2956 -0.672925 2.69086 -0.906142 0.0342517 0.559483 -4.05877 -0.114515 0.268874 -0.583179
107 1 8.62684 28.3911 2.22513 1.62718 -2.83475 -3.52836 0.29016 -4.11171 -0.555276 1.32729 -0.455435
96 1 7.19496 27.0059 0.713481 3.8854 -2.09663 -3.2721 0.0369374 -4.10427 -0.0539826 -0.24339 0.625933
195 1 5.7699 25.6353 2.13475 -1.7019 -1.17403 1.74296 0.124461 -4.05657 -0.0150779 0.201076 0.653642
197 1 8.65402 25.6862 2.18652 -0.592902 -0.620959 0.00800132 0.314685 -4.10388 -0.581659 -0.703332 0.553257
7 1 8.51249 28.4072 -0.652248 0.305773 -1.36188 3.04787 0.322698 -4.04398 -0.201363 0.182539 -1.00238
191 1 14.1954 25.5315 2.1438 -0.0885336 -4.4938 -0.48509 0.2065 -3.9894 0.726955 0.41928 -0.612902
98 1 9.85719 27.0277 0.670098 2.60699 4.64685 0.62246 0.388112 -4.14435 1.06674 0.0968199 0.0245306
100 1 12.8111 27.1397 0.723902 0.688756 2.41483 -3.36628 0.109518 -4.06323 -0.065315 -0.2622 0.168051
199 1 11.3947 25.7747 2.18807 -1.77748 -0.753815 0.440887 0.577842 -4.01845 0.572742 -0.638436 0.251614
99 1 11.3966 25.6653 -0.690846 -3.11862 -0.640777 0.494149 0.136287 -4.08107 0.0260428 -0.20828 0.132855
102 1 1.43258 1.58866 3.68599 7.38627 -3.29026 1.48818 0.292159 -4.09089 0.179671 0.251973 -0.109789
104 1 4.40471 1.70471 3.59803 -2.62904 -0.431866 -2.50035 0.224638 -4.08257 -0.677445 0.296504 -0.3654
202 1 1.64591 1.56967 6.48874 2.02744 3.5456 -1.59179 0.589983 -4.06393 -0.696666 0.853937 0.399267
203 1 2.94499 0.259696 5.08882 -1.3304 -3.48688 0.0854903 0.126816 -4.10584 0.253537 -0.173861 -0.538015
204 1 4.18458 1.68524 6.56789 -0.935437 1.48785 2.63114 4.33491 -4.06648 1.55211 -0.790265 -0.177547
213 1 2.88677 3.08084 5.05544 -2.28947 -0.845795 -1.07431 0.341065 -4.11071 0.343564 0.0845075 -0.121122
106 1 7.15632 1.63052 3.58335 0.736671 -1.16949 0.0239501 0.229721 -4.1366 0.601007 0.17675 0.842544
205 1 5.64874 0.299036 4.95779 2.33469 0.995414 0.291621 0.546247 -3.9986 0.885966 -0.676464 1.31742
206 1 7.2548 1.68985 6.53035 -1.46106 -1.55409 1.7364 0.347801 -4.03217 -0.61342 -0.542444 0.165687
207 1 8.58474 0.236208 5.16272 1.31666 3.04051 1.49325 0.14301 -4.05027 0.555388 0.0475796 -0.730144
215 1 5.78167 2.95842 5.21376 -1.49422 -2.50707 3.51511 0.504324 -4.05103 -0.0377271 0.579999 -0.676834
217 1 8.60442 3.0921 5.11139 -1.80041 2.92479 -5.24384 0.120696 -4.08693 -0.365319 -0.179074 0.2697
201 1 14.2143 0.277593 5.16627 -0.76465 1.66164 -3.30675 0.310247 -4.09997 0.107483 0.248262 0.0180093
211 1 14.1953 3.09372 5.21874 0.131749 -3.47244 0.658656 0.25373 -4.0719 0.302284 -0.451195 -0.478976
108 1 9.98023 1.81548 3.70701 1.78008 -0.0382443 0.481447 5.34775 -4.00235 0.145633 -1.29981 -0.223774
110 1 12.7567 1.63776 3.61937 0.143622 0.261967 0.471904 0.156949 -3.98978 0.309016 0.110606 0.332107
208 1 9.93587 1.5992 6.61691 -2.11946 3.54369 -4.60115 0.1242 -4.17387 0.53466 0.481639 -0.221054
210 1 12.7168 1.62492 6.64445 1.93469 -2.84729 3.21644 0.351629 -4.04104 0.0825424 0.0621585 -0.52284
219 1 11.4042 3.08595 5.13552 2.96876 -3.6 -0.306264 0.065103 -4.03505 -0.268395 -0.370522 0.306204
112 1 1.47335 4.44722 3.7673 -2.08488 5.53109 1.88305 0.227954 -4.0247 0.363459 0.961033 -0.501127
114 1 4.45714 4.53943 3.77937 0.408107 -1.46821 1.68028 0.429175 -4.09349 0.0446561 -0.562272 -0.187428
122 1 1.5387 7.19477 3.7354 -2.178 2.10286 -1.52883 0.2641 -3.9892 -0.555042 0.146019 -0.426977
124 1 4.30599 7.3213 3.71338 -1.70609 -0.894295 0.386355 0.156504 -3.98989 0.142552 0.56344 0.224153
212 1 1.5107 4.56417 6.6229 1.71349 1.1107 -0.37813 0.378409 -4.09897 -0.0996856 -0.56028 -0.0696323
214 1 4.35594 4.34938 6.6405 -3.60792 0.888428 1.10906 4.72482 -4.08832 0.278673 0.91871 -0.346078
222 1 1.54559 7.23945 6.60207 2.60978 -1.28947 -2.65909 0.155473 -4.10998 -0.518524 -0.249116 0.24079
223 1 3.00176 5.86832 5.17384 -2.9209 -3.41332 -1.19244 0.119511 -4.10702 -0.0981106 -0.0891808 0.0616915
224 1 4.45542 7.31972 6.63693 2.28078 -2.16034 3.83898 0.291635 -4.04931 -1.01784 0.223493 -0.349779
116 1 7.08446 4.43511 3.71379 -0.717838 -0.661302 1.69127 5.04055 -4.10081 0.632647 0.532473 -0.292478
126 1 7.33953 7.39572 3.69337 1.37971 -3.46356 0.697126 0.485392 -3.99298 -0.547674 -0.264896 -0.517087
216 1 7.15048 4.45322 6.49012 0.663868 1.20315 1.59813 0.323214 -4.13514 0.194567 0.778769 0.0381184
225 1 5.7941 6.05956 5.09127 0.299468 -1.75276 -1.18853 0.614805 -4.04802 0.0132187 -0.313216 0.481797
226 1 7.22143 7.27669 6.60477 -1.92098 2.73055 -2.00716 0.109775 -4.13773 0.349033 0.423656 0.261229
227 1 8.61587 5.8789 5.09765 -0.532809 -0.371899 0.126652 0.128621 -4.04702 -0.224756 -0.316415 0.105281
221 1 14.1524 5.86373 5.18749 0.796103 -1.93786 -0.0692733 0.124225 -4.07439 0.209515 -0.0303377 -0.732399
118 1 10.0291 4.4796 3.67789 -2.00022 0.251406 -1.34662 0.0991448 -4.12913 -0.271142 0.172724 -0.223498
120 1 12.7727 4.51546 3.61596 -2.93314 -0.0391201 0.674702 0.108114 -4.1097 0.389073 0.0776335 0.238007
128 1 10.0124 7.32217 3.6307 -2.7644 2.28321 3.1472 0.123024 -4.11025 -0.581596 -0.134997 0.205317
130 1 12.7448 7.26336 3.63643 -1.8326 -3.86476 -3.53257 0.156869 -4.11403 0.6015 -0.16136 0.301339
218 1 9.92391 4.44006 6.59913 2.54663 2.02038 1.45237 0.0875379 -4.1219 0.629788 0.0885234 0.326441
220 1 12.7806 4.44772 6.59118 -0.879614 -1.25736 1.20844 0.0622917 -4.00398 -0.213178 -0.303448 0.56387
228 1 9.92162 7.27115 6.68133 0.0778168 -0.255412 1.79302 0.252858 -4.09654 0.473071 -0.0256066 0.15381
229 1 11.2652 5.91426 5.1679 0.58398 1.74186 -1.1864 0.297628 -4.09534 0.678021 0.0260442 -0.137282
230 1 12.8446 7.35538 6.51866 2.31232 0.678649 1.21522 0.271854 -4.06408 -0.298504 -0.788913 0.00334925
132 1 1.49806 10.2454 3.59791 0.926583 1.77752 2.20689 0.198997 -4.03843 -0.150625 -0.694812 0.14893
134 1 4.33421 10.2257 3.73077 -1.95039 -2.01599 -1.69927 0.272576 -4.03555 0.0102498 -0.744748 0.172427
232 1 1.56015 10.1641 6.61803 2.12226 0.0705619 -0.681687 0.205876 -4.10824 -0.291667 0.108151 -0.506199
233 1 2.86938 8.7146 5.19 -0.683116 0.194601 5.31636 0.143604 -4.04755 0.199756 -0.183989 -0.735701
234 1 4.30212 10.2221 6.59713 -0.621179 0.157015 -0.123602 5.2002 -4.08974 0.427578 -0.578598 0.0491942
241 1 0.149986 11.5192 5.09265 -2.41095 0.904273 -0.0212207 0.0908163 -4.07677 -0.0518751 0.0643932 0.158242
243 1 2.87755 11.525 5.04149 -0.234391 0.744033 0.670144 0.23616 -4.04733 -0.080029 -0.106207 0.033492
136 1 7.34978 10.1327 3.70883 0.629619 0.98562 1.20116 4.80473 -4.09724 -0.893887 0.309523 -0.199608
235 1 5.87066 8.81598 5.06472 0.465343 -1.43871 1.4062 0.370484 -4.08257 -0.8313 -0.380425 0.00339701
236 1 7.13391 10.1574 6.6239 2.36863 -0.429749 -0.449581 0.25691 -4.12775 0.0450649 -0.0766003 0.0888959
237 1 8.63235 8.75913 5.28104 2.56455 0.935182 0.542097 0.34993 -4.13241 -0.323103 -0.239754 -0.661563
245 1 5.87987 11.5851 5.12743 0.240801 -0.541356 -0.243051 0.422785 -4.06974 -0.272837 -0.206259 -0.320201
247 1 8.6244 11.498 5.23343 0.432483 -3.51449 2.45946 0.190761 -4.13589 -0.176516 0.39326 -0.0921819
231 1 14.2058 8.74973 5.09165 -0.187028 1.52542 1.17023 0.0854103 -4.12911 0.776413 -0.181599 0.132254
138 1 9.92992 10.142 3.64378 -1.64946 -2.47072 4.24093 5.04003 -4.1512 1.01569 -0.0571978 0.373004
140 1 12.8378 10.2224 3.65171 -3.06779 0.590986 0.953237 0.188948 -4.13587 -0.244196 -0.0787125 0.103405
238 1 10.0462 10.0877 6.62323 4.00462 1.03455 -0.403308 0.138933 -4.04 0.0391618 0.108201 0.585137
239 1 11.364 8.67474 5.09881 1.07823 -1.10089 5.00007 0.0965519 -4.10878 0.437923 0.277179 0.114828
240 1 12.788 10.0949 6.45064 0.473313 1.12475 -2.36237 0.361554 -4.00258 0.263371 0.336739 1.31142
249 1 11.3994 11.5636 5.22295 0.00818624 4.09037 -1.73351 0.239105 -4.0907 -0.155885 -0.402768 -0.234389
142 1 1.52181 13.0509 3.75164 -1.28477 -4.17543 2.9049 0.341177 -4.13094 0.00202488 -0.240758 -0.192381
144 1 4.29805 12.8216 3.58783 1.81958 -2.20134 0.0142737 4.71411 -4.06848 0.579716 0.659489 0.301117
152 1 1.51339 15.8576 3.72807 -0.669006 2.84052 -0.820189 5.12179 -4.16763 0.228591 -0.56038 -0.477023
154 1 4.25725 15.7179 3.64404 2.46855 -1.35996 -1.82568 0.304082 -4.06703 0.442317 0.645868 -0.399839
242 1 1.53992 12.9165 6.56701 0.280113 3.4737 -1.1283 0.116243 -4.15069 0.320039 0.184483 0.387355
244 1 4.24982 12.7782 6.59324 2.14938 -0.0921022 -0.749942 5.10722 -4.09236 0.225912 0.403417 0.0301833
251 1 0.128475 14.4623 5.18978 2.68999 -0.1114 0.508103 0.220597 -4.06836 -0.446699 -0.123533 -0.0781009
252 1 1.63436 15.7834 6.48071 -3.12021 0.366244 0.726554 0.451601 -4.02014 -0.0985853 0.00380445 0.569248
253 1 3.02926 14.3678 5.16492 0.643288 -2.70259 -2.00417 0.350098 -4.03386 -0.271075 -0.389294 -0.206652
254 1 4.32401 15.7314 6.68555 -3.29084 -1.84392 -1.68306 0.266656 -4.03533 -0.380297 0.474355 -0.170987
146 1 7.13468 12.9886 3.6582 1.04428 0.1527 -2.62964 0.131311 -3.94072 0.33754 -0.577479 -0.150175
156 1 7.1141 15.8395 3.68473 -5.45427 -4.00032 2.42238 0.287438 -4.05405 -0.139582 -0.308312 0.261636
246 1 7.17912 12.9922 6.63722 0.991656 -1.68864 -0.448699 0.135196 -4.03345 0.381329 -0.495842 -0.0427309
255 1 5.79332 14.3612 5.08325 0.949383 2.2935 -3.25327 0.175277 -4.11315 -0.966537 -0.375994 0.566626
256 1 7.19239 15.8423 6.50202 -0.861153 0.781607 -0.146585 0.366891 -4.0599 0.182028 -0.667816 0.387614
257 1 8.60857 14.4287 5.18113 -2.00567 3.54744 2.76289 0.0722039 -4.07987 -0.529583 -0.369397 -0.425664
148 1 10.0789 12.8625 3.75409 2.53119 -0.204599 1.59625 0.296955 -4.03705 -0.299903 0.713515 -0.214466
150 1 12.8144 12.9078 3.72073 0.842405 -1.04171 -0.584461 0.154829 -4.13667 0.625725 0.570099 -0.0720381
158 1 10.0599 15.8093 3.73731 1.95172 -4.28031 -2.67566 0.249526 -4.04966 -0.0884443 -0.0182102 -0.0710192
160 1 12.7974 15.8078 3.63935 2.05154 2.79304 -0.0709358 0.184903 -4.08501 -0.265385 -0.0457187 0.437101
248 1 10.001 13.0598 6.64212 1.15591 3.93167 -3.97146 0.325829 -4.04175 0.0709569 -0.179565 -0.0111479
250 1 12.9049 12.9601 6.54658 1.45982 -1.9964 -1.75047 0.252747 -4.09729 -0.325992 -0.0125892 0.00655769
258 1 10.0849 15.781 6.60466 3.15439 -2.57917 -3.22034 0.184087 -4.1242 -0.411349 -0.242311 0.238913
259 1 11.5154 14.2983 5.1259 2.36546 0.76793 -0.871017 0.265834 -4.09209 -0.355689 0.758325 0.165315
260 1 12.7221 15.7462 6.63195 1.07372 0.97037 -2.70378 0.526027 -4.01415 0.639838 0.203657 0.181733
162 1 1.61205 18.4318 3.67076 0.103087 0.473685 0.329909 4.83347 -4.07972 0.0835147 0.442736 -0.0386402
164 1 4.41893 18.6151 3.55906 -0.211573 3.22505 -5.20284 0.335305 -4.05697 -0.574519 -0.924546 0.473731
262 1 1.64124 18.6991 6.58214 -1.57751 0.894061 -4.43727 0.342481 -4.11135 -0.612684 -0.208509 0.0135112
263 1 3.02324 17.1738 5.11284 -2.37006 -0.133771 0.32695 0.257231 -4.09954 0.192541 0.213606 0.240343
264 1 4.25569 18.5351 6.72358 2.99979 1.41468 -0.253245 0.471707 -4.05978 0.676989 0.227759 -0.651674
271 1 0.239882 19.931 5.02308 -2.9132 -1.24747 -1.34561 0.582427 -4.06563 -0.41195 0.011384 0.0968487
273 1 3.06119 20.0027 5.12858 0.40391 -0.0741893 3.19324 0.35426 -4.09944 -0.343111 0.538167 -0.490844
166 1 7.16241 18.5363 3.65285 0.698547 0.150344 -2.49931 0.168353 -4.15742 -0.029349 -0.384131 -0.210269
265 1 5.71847 17.1429 5.2453 -1.6126 -0.82668 -3.54668 0.412955 -4.09639 -0.374708 0.337675 -0.781935
266 1 7.25348 18.553 6.50324 1.95445 3.37989 -0.145865 0.533767 -4.01855 -0.780616 0.0706104 0.0292991
267 1 8.63962 17.1234 5.05548 1.62128 1.24999 -1.44411 0.256693 -4.04897 -0.418386 0.433649 0.698234
275 1 5.66392 19.9514 5.13472 0.0670137 -1.38317 -3.87798 0.296867 -4.08986 0.164404 0.0296579 0.158793
277 1 8.52362 20.0544 5.12426 0.898333 -0.0775842 -0.479706 0.250717 -4.12205 0.467127 0.128919 0.244327
261 1 14.1769 17.1487 5.20329 3.22524 -0.724689 1.23685 0.350549 -4.11972 0.274688 0.482343 -0.0465611
168 1 9.9888 18.5753 3.69463 -3.61858 0.233632 -1.83299 0.196528 -4.06182 -0.410663 -0.130681 -0.260262
170 1 12.8038 18.6463 3.79798 0.900172 4.64776 -2.52583 0.318078 -4.09035 -0.276501 -0.572587 -0.0924141
268 1 9.90461 18.5053 6.69873 4.57801 -0.241298 0.328247 0.292595 -4.04168 0.602837 0.322948 -0.860147
269 1 11.4148 17.1891 5.30656 1.22914 3.37173 -1.05524 0.374781 -4.05483 0.333971 0.516228 -0.877125
270 1 12.909 18.7314 6.58727 -1.75346 -1.91228 -0.862528 0.526173 -4.06533 -0.404274 -0.23093 0.821812
279 1 11.3598 20.0486 5.10294 2.0114 -4.45816 0.994583 0.255993 -4.0429 -0.324266 -0.0553728 0.328162
172 1 1.47279 21.4257 3.69765 2.33301 -0.225112 2.95214 0.268136 -4.09018 0.51666 0.309981 -0.0919671
174 1 4.32705 21.4567 3.54829 -1.27528 -0.710527 -1.51037 0.263924 -4.09162 0.136787 -0.288969 0.0529919
182 1 1.5749 24.1646 3.65126 -0.784188 -3.79054 -2.16947 0.0644406 -4.13524 -0.69059 0.449711 0.104522
184 1 4.3073 24.238 3.60967 -0.587332 0.565944 -1.32797 0.142806 -4.07706 0.217694 -0.308367 -0.390412
272 1 1.50093 21.4332 6.50892 -1.3891 0.701157 2.48604 0.358338 -4.12609 0.146179 -0.25727 0.948916
274 1 4.4257 21.4489 6.66645 2.59471 -0.91757 -0.537123 0.256881 -4.02669 0.304664 -0.196482 -0.628809
281 1 0.183488 22.7914 5.18682 -2.74019 0.616667 0.622568 0.148642 -4.00601 -0.384438 0.282152 -0.311472
282 1 1.52472 24.1909 6.67417 -1.23117 0.365724 -0.651941 0.157658 -4.09702 0.973862 0.054255 -0.599579
283 1 2.92311 22.8102 5.20414 1.18139 2.06881 4.32688 0.167855 -4.03865 0.571302 0.305782 -0.0508835
284 1 4.42474 24.2671 6.64258 -2.88227 1.45219 3.65201 0.160274 -4.02894 0.0937084 -0.497661 -0.575711
176 1 7.06694 21.3141 3.71782 -3.95137 -1.5893 -1.01736 0.387572 -4.06221 0.347428 -0.415961 -1.09687
186 1 7.17879 24.1447 3.56133 2.78581 2.06017 1.88695 0.186588 -3.99767 -0.164898 1.0617 -0.00624033
276 1 7.10716 21.4372 6.65579 2.60993 -1.18025 -2.38511 0.237047 -4.05613 -0.135682 -0.196122 -0.293858
285 1 5.85589 22.7635 5.00329 1.31531 1.02106 -0.50399 0.526097 -4.02201 -1.23781 1.18862 1.25709
286 1 7.16944 24.2408 6.6367 1.08031 -1.08147 0.839848 0.270263 -4.04776 -0.383257 -0.633523 -0.334469
287 1 8.6565 22.7436 5.04795 2.42 3.87829 -0.705154 0.328101 -4.20957 -0.349815 0.249832 0.412022
178 1 9.99102 21.4199 3.61427 -1.13098 -1.50552 3.15931 0.235712 -4.07796 0.450711 -0.104363 0.115913
180 1 12.8404 21.4228 3.74295 -0.471497 0.0061306 0.269058 0.284472 -4.1964 0.07681 0.145579 0.159931
188 1 10.0407 24.0693 3.51143 -1.30348 -2.27273 0.479064 0.798082 -3.97675 0.00567197 1.29124 0.136472
190 1 12.925 24.1389 3.62424 -1.55903 -2.12372 1.13416 0.398687 -4.00841 -0.686964 0.447747 0.417479
278 1 9.94955 21.4304 6.70537 1.38589 -0.978514 1.96516 0.31242 -3.99836 -0.31357 -1.00688 -0.646379
280 1 12.8739 21.3633 6.52257 1.61778 1.13426 1.57654 0.28565 -4.15116 -0.250881 0.110028 0.433038
288 1 10.0194 24.1956 6.68649 2.68269 2.22443 1.78439 0.372867 -4.01735 -0.408215 0.178983 -0.0645125
289 1 11.3072 22.8471 5.12948 -3.96248 4.07387 -0.259648 0.484924 -4.1094 0.598741 -0.282319 0.268681
290 1 12.8777 24.1232 6.57691 1.06046 -1.98762 3.24564 0.235132 -4.10869 -0.39691 0.5541 0.202948
192 1 1.54582 26.9795 3.6831 0.832332 -0.820942 0.130328 0.144197 -4.16446 -0.328368 0.470358 -0.404816
194 1 4.33343 27.1078 3.62752 -1.61671 -3.20912 1.28134 0.248571 -4.07477 0.0633272 -0.327999 -0.698313
291 1 0.123486 25.6243 5.24338 -1.91934 -0.395923 -0.219087 0.365273 -4.00979 0.250399 -0.542077 -0.602103
292 1 1.58125 27.1181 6.49491 0.521729 -0.104332 -0.21211 0.257287 -4.14241 -0.0497945 -0.894404 0.498563
293 1 3.0799 25.6086 5.10236 2.80973 1.17343 -0.298043 0.378668 -4.01122 -0.636906 -0.216343 0.327394
294 1 4.2495 27.1204 6.56969 -1.17778 2.9951 1.58236 0.249906 -4.06173 0.960198 -0.287975 -0.201658
196 1 7.3038 27.0489 3.76486 3.37805 -2.98627 4.17109 0.564251 -4.02444 -1.19482 -0.234081 -0.907702
295 1 5.73558 25.636 5.08215 2.43808 0.681994 -1.51506 0.153148 -4.10862 0.451436 0.256649 0.185547
296 1 7.17419 27.0665 6.48505 0.309675 6.50899 -1.89168 0.238791 -3.98232 -0.289176 0.511041 -0.0162358
297 1 8.56397 25.5256 5.12719 -0.134748 1.31643 -3.31811 0.340817 -4.11766 1.03463 0.405099 -0.156518
209 1 11.3537 28.3011 5.19214 -0.393176 -1.47754 0.78913 5.60468 -3.98473 0.695789 1.06383 -0.72047
198 1 9.95313 27.0869 3.56744 0.689763 -0.698924 -1.31982 0.292561 -3.91796 0.708589 -0.279129 1.33768
200 1 13.0099 27.0067 3.61968 5.30296 -0.270392 0.651806 5.2491 -4.00586 -0.825806 0.472446 0.323781
298 1 9.9521 27.1594 6.64517 1.28797 -2.74568 -4.13594 0.324428 -4.06284 -0.53405 -0.62375 0.365274
299 1 11.357 25.6421 5.16845 0.613569 6.18239 1.53807 5.87813 -4.02663 0.475616 -0.091853 -0.288935
300 1 12.9347 27.0657 6.63765 -0.577292 -1.28953 -3.83829 0.294798 -4.08252 -0.838145 -0.283814 0.0472539
301 1 0.190771 0.330155 7.93906 0.5675 -0.168496 -2.46061 4.70864 -4.12666 0.374958 -0.221149 0.566591
302 1 1.52998 1.64637 9.65961 -1.42736 -3.15682 0.972455 0.277764 -4.08116 -0.0162771 -0.472351 -0.0853026
303 1 2.87995 0.257353 8.08832 0.341516 -0.0404191 -2.60214 0.180399 -4.10849 0.289935 -0.278299 0.000549029
304 1 4.29008 1.6221 9.50568 -4.04083 -0.468429 4.02966 0.149701 -4.04667 -0.123798 0.558889 0.607944
311 1 0.149724 2.85167 8.08027 -1.74976 0.28104 0.763369 4.98977 -4.03478 -0.321215 1.41141 -0.584772
313 1 2.89377 2.99568 7.97033 0.148637 -0.416692 -0.495992 0.333628 -4.0079 -0.0626906 0.591198 0.765404
403 1 2.9679 0.297361 11.0486 0.394335 0.406084 2.23505 0.173242 -4.08873 -0.259152 -0.47736 -0.282347
411 1 0.156785 3.04543 11.0046 0.660313 -0.658618 -1.38298 0.135388 -4.11272 -0.590732 0.25479 -0.204723
413 1 2.87494 3.0559 11.1115 -3.05234 -3.9865 -0.430171 0.321679 -4.13073 0.164576 0.0385204 -0.338458
305 1 5.63949 0.272746 8.08413 -2.6762 0.601797 -1.53878 0.270571 -4.00755 0.775598 0.0114637 -0.483781
306 1 7.16827 1.7968 9.53415 -0.497955 1.38302 -0.554626 0.423328 -3.95336 -0.123493 -0.866339 0.299469
307 1 8.54451 0.339894 8.12718 2.06573 -1.47317 -0.377265 0.311747 -4.10076 -0.543387 -0.812883 0.0821204
315 1 5.88369 2.98404 8.00302 0.746495 3.22544 0.384377 0.619814 -4.0507 -0.749034 0.0216305 0.256974