ITEM: TIMESTEP
4500
ITEM: NUMBER OF ATOMS
128
ITEM: BOX BOUNDS pp pp pp
8.9581343791030221e-02 1.1374418656208741e+01
9.4043627373150862e-02 1.1369956372626701e+01
8.2649933249783869e-02 1.1381350066750098e+01
ITEM: ATOMS id type x y z vx vy vz c_csym c_peratom fx fy fz
2 1 1.44572 1.48294 1.46137 -1.72304 0.870331 0.176738 0.207629 -4.18641 0.251595 0.66659 0.154899
11 1 3.01608 2.87096 -0.0212371 -1.44643 -0.712622 -2.49404 0.31885 -4.08733 -0.36495 0.118584 0.199014
41 1 0.0924972 2.96041 2.96988 -3.52839 -1.54505 -4.52894 0.297208 -3.98834 0.313999 0.00703221 -0.0721535
43 1 2.93072 2.93894 2.97634 2.03411 -3.55051 0.141637 0.211977 -4.04762 0.347709 0.00477314 -0.401616
4 1 4.24474 1.50237 1.527 0.953552 -1.41293 -0.882799 0.220661 -4.08699 -0.167013 0.088058 -0.11786
6 1 7.0542 1.59011 1.55683 2.55678 0.819682 -2.07719 0.143551 -4.02948 -0.0434959 -0.79297 -0.80702
37 1 5.64521 0.12098 2.80428 1.06235 -2.5139 -0.0570334 0.386536 -4.10788 0.440737 -0.0745456 0.677675
45 1 5.75352 2.95856 2.94128 0.0797328 1.9659 1.16654 0.171995 -4.16505 -0.147873 0.308461 0.0846797
9 1 11.3641 2.91128 -0.0608156 -3.1623 1.49341 1.94096 0.560937 -4.0058 -0.104847 -0.0536339 0.691013
8 1 9.9457 1.60097 1.54005 1.10121 0.737909 1.98043 0.292429 -4.21726 0.300913 -0.512246 -0.307148
15 1 8.38612 2.93688 0.139837 1.93699 -1.333 1.30565 0.337517 -4.07661 0.33781 -0.128108 0.149254
47 1 8.3612 2.85966 2.96959 0.919753 0.0611361 1.13446 0.782311 -4.09774 0.732148 0.956038 0.677298
10 1 1.63775 4.16475 1.43396 5.18851 3.52049 -0.963208 0.82304 -4.05776 -1.54005 0.0180187 -0.358887
17 1 0.0579342 5.72128 0.0958112 1.25426 3.34305 0.588669 0.104612 -4.11395 0.0638116 -0.319356 0.12146
18 1 1.54909 7.0993 1.56418 -2.49458 -0.803096 -4.35075 0.393131 -4.02214 -0.50737 0.504485 -0.878383
49 1 0.0848235 5.60458 2.91759 1.33258 6.91321 0.766882 0.218517 -4.07432 0.134662 0.290864 -0.599137
51 1 2.7198 5.59547 2.86378 -0.694844 2.50546 -0.0701451 5.06957 -4.04076 1.644 0.564325 0.739008
12 1 4.32229 4.34039 1.45034 0.274967 -0.398477 3.25748 0.160154 -4.08717 0.020262 0.222013 0.38657
14 1 7.17165 4.44123 1.50015 0.353878 2.59311 -1.25921 0.308595 -4.03886 -0.682626 -0.649361 0.480085
20 1 4.34524 7.1504 1.48907 -0.967332 1.09629 -3.21231 0.114566 -4.13507 -0.50404 -0.258627 0.0522716
21 1 5.80698 5.7747 0.108992 -2.49056 -0.657703 -1.94243 0.191933 -4.00011 -0.43926 -0.827753 -0.806425
22 1 7.06586 7.05937 1.57163 0.644801 6.25318 1.17091 0.421452 -4.15132 0.535044 1.15926 -0.0653306
53 1 5.69911 5.78503 2.99183 0.829171 0.255579 -2.18587 0.153587 -4.03808 -0.0109066 -0.636647 -0.371905
16 1 9.94007 4.17611 1.5425 3.13871 -1.77029 0.547577 0.394738 -4.0765 -0.176375 0.486171 -0.30423
23 1 8.5345 5.70632 0.134774 2.02068 0.255624 0.130827 0.205311 -4.08045 0.518468 0.369738 -0.497338
24 1 10.0052 7.16001 1.46829 0.530996 -0.995438 2.73813 0.108864 -4.0375 0.067115 -0.28014 0.388242
55 1 8.57807 5.7637 2.92074 0.443122 -0.858706 0.0166052 0.161784 -4.12958 0.0993348 -0.579359 0.0206593
1 1 0.0649952 11.3578 0.0798108 6.07608 -0.0542362 0.915278 0.0960089 -4.07076 0.152609 0.129814 -0.111502
3 1 2.87722 11.3511 0.0553352 -5.23021 -6.29403 4.9616 0.176981 -4.12829 0.929708 0.632417 -0.20418
35 1 2.81963 11.1827 2.80651 0.35338 0.744829 3.11046 4.59052 -4.08178 0.742981 0.763719 0.47384
26 1 1.52377 9.96095 1.30287 -1.85601 0.18881 1.42517 0.322999 -4.05952 -0.533295 -0.73835 0.666547
27 1 2.91265 8.57953 -0.101456 0.0194222 -1.88371 0.804574 0.429912 -4.09847 -0.0616034 -0.325348 0.935033
59 1 2.91683 8.51764 2.86601 -1.90221 -2.07161 -1.66202 0.106417 -4.07214 -0.19373 0.734204 -0.0136774
28 1 4.39952 9.95174 1.41662 2.63801 2.30811 0.767744 0.290077 -4.09563 -0.704603 -0.411464 0.0496143
29 1 5.74528 8.5393 0.0696033 -0.191693 0.217554 -1.69796 0.0643269 -4.11749 0.253171 0.0260626 0.14896
30 1 7.06278 9.90637 1.54516 -2.44124 -0.787009 2.06423 0.220557 -4.11188 0.440729 0.646379 -0.276312
61 1 5.7444 8.62403 2.92352 0.89241 0.801355 -1.31691 0.302318 -4.04975 -0.496596 -0.966392 0.623416
33 1 11.4714 11.349 2.88149 -0.258556 3.99986 -2.2192 0.237097 -4.07606 -0.292871 -0.137815 -0.051318
39 1 8.49966 11.4198 2.86044 -0.10458 2.74958 -2.4494 0.188074 -4.0632 0.0817521 -0.200678 -0.0718148
57 1 11.4406 8.62887 2.8197 -0.854361 2.88693 -0.231869 0.21727 -4.11565 -0.244595 -0.44447 0.0333616
32 1 10.0066 9.97875 1.49343 -2.65808 -0.41279 2.55869 0.0951372 -4.15069 0.0667669 0.227775 -0.0252574
63 1 8.62863 8.53898 2.84909 -1.57158 2.64834 -1.54083 0.129097 -4.09977 -0.353353 -0.0643369 0.280782
34 1 1.52729 1.54486 4.22167 -0.715222 0.728491 2.93811 0.405653 -4.0858 -0.0805022 -0.306825 1.04289
66 1 1.57581 1.40734 7.08408 1.89162 -0.485905 -3.03007 0.382507 -4.03766 0.219696 0.472721 0.244181
75 1 3.02778 3.02045 5.75755 1.05728 0.443408 1.81246 0.324241 -4.0548 -0.872743 -0.408413 0.236607
36 1 4.31049 1.50986 4.28164 -1.61507 1.71815 -1.42743 0.140478 -4.08713 -0.133978 -0.512437 0.329632
38 1 7.06967 1.33257 4.41819 -3.39234 -4.62152 0.553407 0.856464 -4.06047 0.363506 0.539876 -0.551633
68 1 4.29253 1.51755 7.10278 0.886564 1.00914 -0.491643 0.163749 -4.15946 0.410923 -0.197722 -0.00261733
70 1 7.12155 1.53912 7.04672 0.793912 -1.02055 3.25057 0.194093 -4.13813 -0.0753453 -0.00689785 0.243707
77 1 5.72886 2.92373 5.61148 1.3046 -1.274 -4.85571 0.464725 -4.06401 -0.151832 -0.0615118 0.713865
73 1 11.4043 2.87074 5.88044 0.13855 1.60927 -2.49512 0.371726 -4.16014 0.0697475 -0.0195936 -0.871571
40 1 10.0326 1.49661 4.24387 1.02943 -1.34651 1.76982 0.388281 -4.13988 -0.226654 0.0542282 0.271341
72 1 9.95898 1.46062 7.09056 -2.34996 -2.84553 1.35885 0.125428 -3.94194 0.196177 0.648796 0.481453
79 1 8.56485 2.91127 5.70323 -2.06992 -1.84795 0.415846 0.181678 -4.133 -0.0865028 -0.3096 0.117433
42 1 1.55282 4.33462 4.44648 1.19963 -1.60519 -5.08345 0.247343 -4.11983 -0.651624 -0.28094 -0.145666
50 1 1.41582 7.06208 4.24992 3.00734 -0.564012 0.497587 0.366501 -4.11877 0.197816 0.499069 0.740386
74 1 1.46755 4.31341 7.23446 0.227151 0.0848187 1.51733 0.0556269 -4.07459 0.303719 0.101126 -0.0815671
82 1 1.47193 7.22799 7.20161 1.15793 -1.31745 -0.0777047 0.194666 -4.09941 -0.162078 -0.232935 -0.0788489
83 1 2.85866 5.8367 5.83436 0.702172 -0.607773 0.905641 0.334637 -4.09961 0.267801 -0.39913 -0.112901
44 1 4.32379 4.427 4.38051 -2.47483 1.03563 -1.95828 0.250931 -4.09627 -0.337332 -0.152473 -0.28085
46 1 7.10079 4.45149 4.52854 2.25147 -2.70087 -0.131868 0.835705 -3.99315 0.0782096 -0.409381 -1.64836
52 1 4.14156 7.09571 4.27573 0.405761 -2.14009 1.5052 0.643257 -4.05778 0.823358 0.225497 -0.197044
54 1 7.16783 7.14562 4.26118 -0.275691 -6.83519 -1.80825 0.15185 -4.10934 -0.197668 0.2697 0.248903
76 1 4.41057 4.34789 7.17706 -0.296138 2.23151 1.12727 0.251186 -4.15691 -0.517599 0.366907 -0.420628
78 1 7.15716 4.45453 7.14698 0.356198 -2.58747 -0.373457 0.21522 -4.17183 -0.273263 -1.03959 -0.272965
84 1 4.38269 7.17689 7.24298 -0.708338 -1.10647 0.283932 0.185353 -4.01883 0.0417133 -0.501815 -0.430269
85 1 5.6818 5.913 5.73293 0.457208 -0.00937924 1.80214 0.456379 -4.12283 0.22317 -0.610575 0.279234
86 1 7.16265 7.1983 7.20603 -1.51306 -2.26404 -3.94196 0.118952 -4.14099 0.271481 0.0476241 -0.297009
81 1 11.3539 5.67382 5.88296 -0.595283 -1.94124 2.21611 0.32997 -4.05439 0.107486 0.0637792 -0.958446
48 1 9.96237 4.26095 4.36904 0.868858 -0.779757 3.69988 0.129632 -4.05125 -0.0220135 0.386661 0.0531801
56 1 10.0133 7.16379 4.26338 -3.2874 0.0539045 0.562415 0.192084 -4.0837 0.269225 -0.269039 0.288882
80 1 9.9214 4.29445 7.19571 1.09724 1.77842 -0.0706787 0.0672365 -4.09147 0.237704 0.337525 -0.230759
87 1 8.53595 5.75738 5.7775 4.46654 -0.309881 1.48137 0.0846966 -4.11104 0.847959 0.631558 -0.204629
88 1 10.03 7.1286 7.14392 1.31697 -1.90097 2.13453 0.208494 -4.14196 -0.336349 0.269435 0.52266
65 1 0.0499113 11.3718 5.7919 2.30488 3.93692 -6.225 0.290639 -4.13908 0.601561 -0.579886 -0.609586
67 1 2.89932 11.3463 5.69761 -0.742175 -0.989926 1.52125 0.0747636 -4.04544 0.227287 -0.142883 -0.315184
58 1 1.51201 9.92011 4.34735 2.4345 -0.719591 -0.106465 0.146586 -4.05153 -0.17438 0.00299054 -0.00919726
89 1 0.0682878 8.57358 5.73325 0.518535 -1.98322 -0.65116 0.155614 -4.04739 -0.0341293 0.247032 -0.273436
90 1 1.56399 9.90218 7.16767 -0.378771 -1.63657 -1.26881 0.163938 -4.08055 -0.0546908 0.436322 0.073982
91 1 2.99699 8.57828 5.73386 -3.64011 1.03928 1.234 0.214233 -4.12591 -0.493272 -0.274893 0.0568375
69 1 5.72426 11.2855 5.80551 3.64779 0.458969 -2.76065 0.298201 -4.01828 -0.00135421 0.771883 -0.830488
60 1 4.37819 9.93733 4.33378 3.54448 3.15959 -0.859442 0.175299 -4.07896 -0.187967 0.277259 -0.282206
62 1 7.17361 9.91881 4.32338 0.285329 -1.46167 3.49092 0.0992056 -4.13107 0.0524758 0.451575 0.062963
92 1 4.37308 10.0203 7.15522 2.82362 2.71184 0.0464277 0.154098 -4.07957 -0.919837 -0.649754 0.248536
93 1 5.70211 8.51177 5.78714 -2.00798 -5.14184 -4.11574 0.200499 -4.15007 0.0649707 0.0135521 -0.369344
94 1 7.25051 10.0145 7.03756 -3.40116 -2.31867 0.0800321 0.522884 -4.07582 -0.499996 -0.733426 0.435648
71 1 8.68142 11.379 5.78181 -2.44378 -3.25326 -2.89387 0.644048 -4.09563 -0.909586 -0.132279 -1.0186
64 1 9.96263 10.0425 4.18994 2.79321 -1.28802 -0.983488 0.404394 -4.09271 -0.190423 -0.641228 0.769975
95 1 8.57988 8.43648 5.71186 -1.43162 0.818829 -1.97791 0.333787 -4.05696 0.130831 0.492945 -0.249467
96 1 9.84616 9.87232 7.13328 -0.625974 -0.334996 -2.79411 0.427071 -4.0319 1.08252 0.285442 -0.0767019
98 1 1.54348 1.49649 10.0202 0.303196 3.61013 3.52647 0.200799 -4.07766 -0.28062 -0.356501 -0.466661
107 1 2.87141 2.87095 8.5882 1.15631 1.8465 -0.0865329 0.196589 -4.12008 0.0469858 0.152181 -0.409767
13 1 5.69439 2.92231 11.4077 2.07791 3.40451 1.67231 0.165611 -4.11709 0.19429 0.288505 0.116295
100 1 4.43681 1.5351 9.85901 -2.34223 5.79999 0.952268 0.398234 -4.09924 -0.339237 -0.291685 0.249308
102 1 7.16689 1.51942 9.97342 0.600022 -1.09585 0.665955 0.0768843 -4.09694 -0.398067 0.0944838 -0.289902
109 1 5.73621 2.94 8.44393 -4.02928 -1.16794 0.0189434 0.142448 -3.97077 0.336434 -0.763357 0.562027
7 1 8.44504 0.0541772 11.503 0.495058 -2.13326 -1.093 0.297823 -4.06453 0.200518 0.532589 0.0396271
105 1 11.3848 2.78458 8.53133 -0.115233 -1.32142 -3.84873 0.31444 -4.19861 -0.437364 0.191347 0.324119
103 1 8.50212 0.17657 8.52795 -3.12206 0.436023 3.56083 0.22418 -4.15026 0.482349 -0.662755 0.175675
104 1 9.78646 1.49262 10.1321 1.1766 0.55781 -4.19614 4.92636 -4.07433 0.725473 0.0773504 -0.435337
111 1 8.63062 2.81989 8.44272 1.97734 1.33079 1.84294 0.671939 -4.0769 -0.803389 0.327986 0.551337
19 1 2.83339 5.70797 11.3902 -2.92488 -2.29136 0.145238 0.273322 -4.07273 0.441303 0.234348 -0.506892
106 1 1.4678 4.25145 9.93749 -1.27863 1.75194 -0.230305 0.0827359 -4.07581 0.472458 0.490108 0.0163664
113 1 0.018619 5.70794 8.68315 0.974735 0.701691 -0.0207601 0.28214 -4.12458 0.0853465 -0.285787 -0.689983
114 1 1.47517 7.07692 9.9028 2.93717 0.524339 -1.07795 0.186241 -4.00936 0.231069 0.620276 -0.0340207
115 1 2.91408 5.73931 8.52412 0.775738 -0.755278 0.0113501 0.0742719 -4.07599 0.0106132 0.0743071 0.279262
108 1 4.31506 4.34843 9.85777 2.15028 1.29778 -0.531403 0.222188 -4.13394 0.318203 0.173414 0.584229
110 1 7.12762 4.23897 9.82915 2.52423 1.86428 1.71819 0.464666 -4.16882 0.164736 0.614383 0.800693
116 1 4.42943 7.16333 9.98819 1.97807 0.828185 2.82812 0.177469 -4.08046 -0.515722 -0.6126 -0.0573339
117 1 5.85246 5.82045 8.55293 -2.93624 2.14993 -0.521451 0.198355 -4.05475 -0.746739 -0.021897 0.253725
118 1 7.18937 7.15966 9.9762 -0.258261 -1.05976 1.63949 0.0709472 -4.15381 0.0835709 -0.0296609 0.45419
112 1 9.82359 4.24659 9.99515 -1.0059 1.03271 -0.164383 0.421864 -4.09597 0.47482 0.216064 -0.212971
119 1 8.55424 5.77861 8.50599 -3.15677 -1.82757 -0.208545 0.159535 -4.07713 0.0451411 -0.275636 0.234543
120 1 9.83839 7.17749 9.90647 -2.16422 1.70423 -0.189977 0.452236 -4.06129 0.629962 0.0206956 0.539298
25 1 0.117228 8.51519 11.269 -2.76745 3.42313 2.8581 0.291858 -4.12458 0.0323085 -0.0823152 0.51295
97 1 0.00368283 11.3737 8.49157 -1.87128 0.409101 -2.12748 0.302625 -4.16534 0.124954 0.232693 0.524039
99 1 2.9987 11.3491 8.60689 0.357516 2.81847 -1.38337 0.1758 -4.10148 -0.251331 0.373151 -0.575031
121 1 0.0428475 8.6765 8.5627 2.10157 -5.39146 -1.25342 0.392632 -4.07553 0.119922 -0.709373 0.209728
122 1 1.53685 10.0458 9.87507 0.0232598 -2.82864 -1.37826 0.256379 -4.07624 -0.372685 -0.489296 0.205282
123 1 3.0832 8.52232 8.55519 1.69149 -2.18653 0.392074 0.389027 -4.12133 -1.19685 0.650305 0.750226
5 1 5.70578 11.4827 11.4132 -0.964743 -1.65347 0.856049 0.264274 -4.14332 0.4546 -0.616763 -0.188748
101 1 5.83033 11.3145 8.45493 0.733399 -1.02488 2.18508 0.331425 -4.09058 0.145728 0.345664 0.722939
124 1 4.37723 10.037 9.99787 -1.28605 -3.03712 2.88248 0.210069 -4.0945 0.0702419 -0.164411 0.0271201
125 1 5.78403 8.62754 8.63689 -0.13015 3.19394 0.325183 0.142909 -4.20171 0.0537694 0.0200057 -0.699721
126 1 7.22114 9.91245 10.0772 -2.14277 -2.32407 0.520011 0.347901 -4.05867 -0.376598 0.543038 -0.41645
31 1 8.54348 8.57835 11.5803 -2.44089 0.728309 3.03921 0.559393 -4.08617 0.0103317 -0.668234 -0.946217
127 1 8.54363 8.57163 8.54415 0.248775 1.70305 -0.486011 0.143334 -4.085 -0.121162 0.094329 0.194293
128 1 9.93909 9.96646 10.1037 -1.40903 4.22847 2.80548 0.309045 -4.07163 -0.519461 0.119592 -0.732753
