ITEM: TIMESTEP
9000
ITEM: NUMBER OF ATOMS
128
ITEM: BOX BOUNDS pp pp pp
8.7900088539126564e-02 1.1376099911460607e+01
8.0097954114335401e-02 1.1383902045885470e+01
8.2649679029042314e-02 1.1381350320970839e+01
ITEM: ATOMS id type x y z vx vy vz c_csym c_peratom fx fy fz
2 1 1.49863 1.50245 1.38031 1.39612 -0.669276 -2.28176 0.273266 -4.00302 0.141688 -1.03967 1.31807
11 1 2.97875 2.80691 0.114128 -1.55927 -0.42025 2.677 0.401475 -4.06525 -0.359675 0.295214 -0.241736
41 1 -0.0213065 2.98345 2.99794 0.711496 -0.211834 1.16116 0.462744 -4.05953 0.806703 -0.547337 -0.28471
43 1 2.86251 2.85196 2.80572 -0.885335 3.42218 3.13886 0.23883 -4.07203 0.142687 0.129354 0.108161
4 1 4.34877 1.38562 1.47764 1.30135 3.36328 -0.731703 0.184971 -4.04283 0.291472 0.525795 -0.23979
6 1 7.17981 1.46402 1.67154 -6.24898 -0.372402 3.42653 0.582833 -4.06794 -0.37289 0.048504 -0.473845
37 1 5.6909 0.0603247 2.93796 2.05772 -4.34316 -0.450943 0.0866329 -4.10047 0.332254 -0.18367 0.0279379
45 1 5.62193 2.8751 2.86168 -0.535001 2.21661 0.0558892 0.335052 -4.0667 0.291162 0.317722 0.484112
9 1 11.419 2.84934 0.174051 -3.56473 0.991512 -3.53154 0.321707 -4.00701 -1.23305 0.788331 -0.795936
8 1 9.92802 1.4217 1.51308 0.51256 2.59099 0.498604 0.259752 -4.09787 0.121416 0.0363021 -0.0583517
15 1 8.49755 2.9504 0.190464 -4.93473 1.67226 -2.21892 0.208525 -4.19083 0.289006 -0.291333 -0.297658
47 1 8.56721 3.01339 2.90787 0.615924 4.108 2.09432 0.353512 -4.12192 -0.188489 -0.365741 -0.0865131
10 1 1.47232 4.4361 1.47882 -3.25637 -1.58876 -1.52732 0.264992 -4.06707 0.538617 -0.810339 -0.0364209
17 1 0.0804316 5.77574 0.148113 1.2089 1.88024 -2.05748 0.180998 -4.11821 0.0364553 0.00217057 -0.447417
18 1 1.59725 7.11874 1.40393 0.630513 -1.12729 -0.265164 0.343107 -4.0732 -0.0322212 0.244983 0.0514655
49 1 0.108552 5.80443 2.89484 2.52283 -1.04586 0.167903 0.159358 -4.20645 -0.182986 -0.474603 0.315431
51 1 2.96898 5.80293 2.77118 -0.621144 0.788769 -3.46917 0.445109 -4.06326 0.0849638 -0.545682 0.706228
12 1 4.32355 4.30336 1.4904 1.36505 -1.50567 0.623514 0.0998756 -4.06007 -0.270296 0.146947 0.0118111
14 1 7.03307 4.39764 1.51029 -1.39651 1.43968 3.20205 0.384779 -4.04321 0.556307 -0.157654 0.527316
20 1 4.34569 7.26822 1.48319 2.0649 -4.43808 1.1065 0.223603 -4.15588 -0.0937282 -0.419091 -0.523666
21 1 5.74787 5.7452 0.0681158 0.900231 -0.52588 0.309254 0.108569 -4.05133 -0.528493 -0.464299 0.137599
22 1 7.12683 7.23206 1.51521 1.87237 3.26709 0.365701 0.185811 -4.12763 -0.00239546 -0.477768 -0.0629555
53 1 5.59526 5.7799 2.91253 2.14681 0.607708 -3.65107 0.257878 -4.04519 0.61724 -0.48044 -0.0530554
16 1 10.0144 4.29902 1.53675 0.686601 -0.739007 -0.234438 0.122302 -4.05911 0.417036 -0.101351 0.0366868
23 1 8.69338 5.5871 0.168668 2.0757 0.656372 -0.847141 4.90339 -4.0493 -1.38944 1.58243 -0.652669
24 1 9.91757 7.12926 1.57569 -1.63472 -1.72718 -2.94952 0.369717 -4.11362 0.088839 0.139083 -0.428612
55 1 8.53286 5.63175 2.88254 0.250541 1.59384 2.96698 0.421853 -4.08535 0.0374694 0.566756 -0.0991839
1 1 0.0748302 11.3546 -0.077308 -1.04224 -0.142177 -0.2676 0.245529 -4.01641 0.418035 0.203597 0.798392
3 1 2.86776 11.3247 0.0557294 0.188775 -0.180776 -3.8681 0.104228 -4.1226 0.232124 0.810966 -0.111285
35 1 3.00501 11.3284 2.82113 -1.48291 0.0749559 2.3296 0.339681 -4.14362 -0.838247 0.441988 0.546796
26 1 1.50428 9.9719 1.46252 2.34144 1.77136 -2.22961 0.094215 -4.09706 -0.130568 -0.0782026 0.192958
27 1 2.90759 8.65596 0.0334133 1.31051 4.64079 -0.632635 0.18765 -4.1213 0.132571 -0.752551 0.0161135
59 1 2.8628 8.5503 3.01922 -2.38641 -2.07116 3.07421 0.407792 -4.17183 0.431415 0.228265 -0.775786
28 1 4.29539 9.90474 1.49932 2.44976 -3.77469 0.408708 0.176527 -4.10463 -0.0022436 0.320135 -0.459055
29 1 5.73488 8.6699 -0.00115587 1.50434 3.38632 -1.22094 0.357515 -4.07246 0.0848783 -0.412711 0.770909
30 1 7.16111 9.92667 1.5756 0.143526 -1.3908 0.591583 0.285661 -4.11992 -0.568717 0.247776 -0.514414
61 1 5.62418 8.61103 2.91456 0.594803 -0.45653 -1.06627 0.286876 -4.07718 0.677595 0.107287 0.799975
33 1 11.4093 11.3589 2.81165 2.30899 1.40741 1.68113 0.116274 -4.03731 -0.357351 0.358025 0.328485
39 1 8.57626 11.2241 2.91876 3.6181 1.49766 0.131792 0.367447 -4.03002 -0.0951682 0.883042 0.343875
57 1 11.4802 8.41535 2.95792 -0.822251 -1.93966 -1.21733 4.38967 -4.15677 -0.219701 0.644553 -0.704334
32 1 10.0046 9.96691 1.39233 -2.79113 2.91913 0.784716 0.265361 -4.1413 0.100453 -0.0961163 0.420529
63 1 8.66591 8.65755 2.9017 -0.593098 -1.54947 -3.51025 0.390148 -4.0554 -0.548033 -0.472909 -0.0369485
34 1 1.46971 1.42477 4.25977 -0.881982 1.34941 1.24342 0.223861 -4.01735 0.511781 0.469505 -0.00960678
66 1 1.39064 1.5838 7.11347 0.974015 1.6324 -0.31592 0.268179 -4.09088 0.50189 -0.501197 -0.146423
75 1 2.9363 2.86355 5.77207 0.36471 0.0800998 1.80464 0.161419 -4.0356 -0.734782 -0.155567 -0.0476319
36 1 4.25984 1.49865 4.31391 -1.52911 0.53039 1.81309 0.0936511 -4.12142 0.1124 0.154192 0.1166
38 1 7.18974 1.52501 4.33882 1.14808 2.65099 0.849171 0.180543 -4.11947 -0.412044 -0.0764852 -0.268604
68 1 4.26884 1.49443 7.19067 2.28485 3.27047 0.4793 0.0916087 -4.1127 -0.079026 0.101905 -0.390561
70 1 7.23985 1.42788 7.0776 -1.71106 -0.344087 -1.61779 0.381717 -4.07594 -0.685935 0.69906 0.526746
77 1 5.6721 2.85522 5.86749 1.38716 0.561611 1.36663 0.353718 -4.04852 0.702202 -0.38808 -1.11985
73 1 11.3113 2.88451 5.69062 -2.01406 0.0791655 1.72116 0.197153 -4.09748 0.273313 0.137956 -0.426412
40 1 9.79048 1.42982 4.29706 0.578106 1.12781 -1.74086 0.748306 -4.0576 1.62476 0.267136 -1.07207
72 1 9.99751 1.56951 7.2026 3.88944 1.37219 -0.264068 0.245481 -4.13986 -0.294838 -0.842244 -0.300392
79 1 8.6323 2.79362 5.76559 0.390441 -2.6902 3.50897 0.436166 -4.04803 -0.407154 1.35767 -0.161219
42 1 1.60048 4.36821 4.31628 -1.36278 0.340202 3.76209 0.30983 -4.07325 -0.0394511 0.0575886 0.133291
50 1 1.65556 7.05673 4.36711 -0.345273 1.37734 1.32052 0.726493 -4.07476 -0.475231 0.389075 -0.160325
74 1 1.48012 4.34854 7.14622 -1.58127 1.71701 -1.1925 0.105616 -4.17009 -0.209797 -0.197262 -0.460889
82 1 1.47652 7.18636 7.07008 -3.62716 -1.08722 0.229875 0.248599 -4.07862 -0.215248 0.181052 0.888189
83 1 2.9732 5.85939 5.8949 0.94813 -4.07855 -1.64212 0.709293 -4.07117 0.268562 -0.893208 -0.683129
44 1 4.23844 4.27641 4.4217 -1.85443 2.80202 -0.977355 0.262796 -4.1291 0.246423 0.348286 -0.752966
46 1 7.04436 4.34972 4.39211 -0.409022 -1.07443 4.63524 0.198187 -4.08846 0.19697 -0.492 -0.142371
52 1 4.3351 7.13696 4.31531 -2.99069 1.75518 0.387424 0.228035 -4.08963 -0.437336 0.372119 0.339607
54 1 7.20342 7.18318 4.2092 0.648905 -3.28131 -3.08806 0.41035 -4.16114 -0.287884 -0.19042 0.20332
76 1 4.38022 4.2644 7.131 0.849229 1.7986 5.39361 0.244597 -4.08824 -0.818232 0.320489 0.160391
78 1 7.22756 4.26155 7.12501 1.75094 -2.28583 -0.135277 0.302118 -4.091 -0.0847183 0.272549 -0.294648
84 1 4.33699 7.20447 7.2513 1.32532 1.39395 1.38456 0.313031 -4.05176 -0.180053 0.100931 -0.202451
85 1 5.66553 5.81229 5.76045 0.0470036 2.67657 -3.66542 0.322889 -4.08598 0.54874 -0.247248 0.151144
86 1 7.17218 7.12257 7.16371 0.345441 2.42939 0.864851 0.0968651 -4.14303 -0.322686 0.27918 0.0845298
81 1 11.4274 5.82991 5.68322 3.61457 -0.172795 2.2892 0.209171 -4.05779 -0.559109 -0.658234 0.0861131
48 1 9.90765 4.39263 4.33628 -3.47067 -0.188152 -1.44689 0.209874 -4.05849 0.194943 0.0140543 0.375809
56 1 9.90085 7.17558 4.25911 -0.00315997 2.43363 2.6855 0.287869 -4.10331 0.0503329 -0.369357 0.522867
80 1 10.0128 4.37806 7.13533 0.939759 0.14163 -4.10159 0.190565 -4.10982 -0.442765 -0.224581 -0.0179462
87 1 8.52849 5.82605 5.72745 -0.694296 -2.42489 1.22637 0.153546 -4.02782 0.230542 -0.232811 0.0580784
88 1 10.028 7.16902 7.1729 -2.51319 -0.801778 0.586534 0.152888 -4.10026 -0.346995 -0.067239 0.00876392
65 1 0.0675969 11.4277 5.63381 1.0449 2.30696 0.759577 0.197506 -4.15769 -0.267895 -0.174712 0.859055
67 1 2.83801 11.3962 5.83914 2.67734 0.354311 -0.0466927 0.278446 -4.14266 0.16172 0.057586 -0.601508
58 1 1.45576 10.0093 4.2153 0.515135 -1.70029 -0.456632 0.341991 -4.06782 0.476782 0.179956 0.544457
89 1 0.0971295 8.52575 5.58412 -1.49107 -1.02726 -0.155723 5.00373 -4.13016 0.127515 0.249407 0.847757
90 1 1.40673 9.96531 7.12589 1.45025 -0.686939 -1.46293 0.166343 -4.01698 0.425243 -0.397565 -0.278077
91 1 2.93772 8.7135 5.72246 0.974173 1.67392 2.02612 0.446271 -4.11946 -0.485229 -1.37985 0.476954
69 1 5.72304 11.4556 5.70595 -2.05045 -2.56358 -0.00292388 0.179089 -4.10167 0.0246439 -0.444361 0.416073
60 1 4.24636 10.0461 4.39687 -0.274139 -2.31063 0.685658 0.288077 -4.03304 0.793188 0.170063 -0.648901
62 1 7.16886 9.95111 4.41515 3.31673 0.900482 -4.79549 0.235954 -4.07762 -0.101163 0.328881 -0.408306
92 1 4.38827 9.96168 7.19288 -0.20072 -2.42959 -0.980883 0.294156 -4.09634 -0.191406 -0.030221 0.0570254
93 1 5.75792 8.50782 5.68521 1.41862 0.435384 2.55927 0.236712 -4.09992 -0.289154 0.210181 0.264947
94 1 7.12663 9.9484 7.22581 3.9465 -3.47399 0.371367 0.208125 -4.13095 -0.0488686 0.0995187 -0.563054
71 1 8.68184 11.425 5.81151 0.826417 0.356985 -1.5047 0.482066 -4.04664 -0.837627 -1.30939 -0.362683
64 1 10.0964 9.93297 4.23361 -2.03777 -0.697629 -0.407329 0.312071 -4.07037 -0.678575 0.39841 0.245931
95 1 8.55749 8.59301 5.7571 4.60798 -3.01767 -0.992388 0.0901316 -4.05907 0.357235 -0.148616 -0.0257927
96 1 9.91243 10.0064 7.22161 -5.09192 -0.665325 -0.0137924 0.269971 -4.0643 0.335874 -0.664312 -0.49469
98 1 1.41044 1.53485 9.84488 -0.842953 -1.99005 1.52719 0.350536 -4.1686 0.770019 -0.399811 0.878513
107 1 2.85212 2.91292 8.52794 -0.998247 0.295079 -2.49416 0.110507 -4.13949 -0.140731 -0.345461 -0.694265
13 1 5.82738 2.94419 11.4356 2.41196 -2.1244 -1.26375 0.407066 -4.16036 -0.704081 -0.694839 -0.245862
100 1 4.34337 1.45246 9.83087 4.3123 -3.05844 0.318803 5.29636 -4.04538 -0.555675 0.383716 0.99993
102 1 7.13095 1.49042 10.0935 -0.800974 1.73526 3.77743 0.221422 -4.008 -0.142047 0.0580773 -0.891806
109 1 5.84069 2.8915 8.51034 1.60332 2.9117 -1.71723 0.283555 -4.19374 -0.104775 -0.266283 0.224853
7 1 8.38848 0.0879941 11.4545 -1.00262 0.15987 -0.267599 0.506913 -4.06331 0.964748 -0.295653 -0.0895429
105 1 11.3564 2.88052 8.5107 -5.336 -2.38918 0.279386 0.101255 -4.05323 -0.183758 1.12922 0.496614
103 1 8.52402 0.117494 8.52195 1.40781 0.383075 3.70176 0.148724 -4.08561 0.0339076 -0.100102 0.536249
104 1 9.97489 1.44082 9.94047 -5.29397 -2.30981 0.791124 0.109757 -4.12876 -0.217255 0.403267 0.625136
111 1 8.57412 2.91067 8.70324 -0.525622 -4.49185 -3.50565 0.329808 -4.11817 -0.1821 -0.0180883 -0.872432
19 1 3.07051 5.71413 11.246 -0.160429 -1.24362 2.32486 0.652457 -4.05498 -0.643484 -0.198289 0.368769
106 1 1.45349 4.18323 10.0027 -0.436683 -2.37395 -0.487427 0.342359 -4.13828 0.16147 0.592038 0.378643
113 1 0.0964663 5.68874 8.58889 3.07269 -0.425091 1.05006 0.0950505 -4.0591 0.173141 0.561744 0.16836
114 1 1.54037 7.12689 9.94241 1.35097 -1.04335 -2.76521 0.103568 -4.04276 -0.376152 -0.385232 0.277463
115 1 2.89329 5.62003 8.53247 3.02655 -1.87534 -0.844949 4.75296 -4.09581 0.372677 0.639737 0.451288
108 1 4.26435 4.06733 9.91523 1.73299 -1.24818 1.95559 4.45982 -3.94566 1.30992 1.46289 0.38553
110 1 7.18419 4.34939 9.97233 -0.674169 2.58564 -1.77767 0.149759 -4.04325 -0.212279 -0.0145664 0.231311
116 1 4.45575 7.22245 9.96809 -0.632029 0.121487 2.37584 4.50729 -4.0569 -0.862896 -0.60088 -0.178506
117 1 5.77452 5.56033 8.50614 -0.771158 -0.108716 -2.06734 0.477823 -4.14889 -0.53113 0.836073 0.276408
118 1 7.05661 7.08136 9.93602 -2.11508 0.072552 -0.773063 4.86113 -4.07498 0.905711 0.241103 0.534349
112 1 9.98443 4.30662 10.0372 1.58407 2.67664 3.58908 0.0667286 -4.06806 0.537644 -0.426696 -0.557706
119 1 8.52409 5.68861 8.54331 -0.875888 -1.61446 -3.35099 0.147802 -4.08081 0.611787 0.409643 0.401226
120 1 10.0176 7.23715 10.0565 -3.55304 2.60427 -0.972919 0.337455 -3.99218 -0.896949 -1.23481 -0.945793
25 1 0.104705 8.50225 11.3797 2.34122 0.108365 -0.698827 0.144312 -4.08163 0.370304 0.699275 0.167015
97 1 0.0986724 11.3584 8.46193 -1.14136 -0.735355 -0.0167623 0.278265 -4.13992 -0.0292233 0.450276 0.415013
99 1 2.81198 11.418 8.50458 0.551749 0.369942 1.61855 0.131523 -4.11683 0.261549 -0.424074 0.0916363
121 1 0.0751774 8.61253 8.5794 -0.592109 1.56253 -0.44787 0.0595687 -4.07851 0.148871 -0.319769 0.182668
122 1 1.53017 10.0025 9.95907 -0.590714 -5.42935 -0.303771 0.117108 -4.09277 -0.694865 -0.444893 -0.248714
123 1 2.85563 8.48767 8.60869 0.480743 0.197476 2.48689 0.311373 -4.05975 0.293963 0.937116 -0.590805
5 1 5.70248 11.3613 11.341 0.105379 1.42591 1.62432 0.147162 -4.10275 0.253803 0.0523464 0.810911
101 1 5.71339 11.4888 8.45979 -0.263773 -2.26651 -1.91657 0.487532 -4.02564 0.942125 -0.83448 0.833909
124 1 4.32766 9.99195 9.96433 -4.51323 1.64923 -1.24749 0.124099 -4.16675 -0.124611 0.153504 -0.858567
125 1 5.76037 8.55474 8.57759 3.00125 -2.60672 0.86068 0.0278141 -4.02609 0.351355 0.126107 -0.19954
126 1 7.13375 9.9516 9.94883 -3.06557 3.18251 -0.141707 0.125288 -4.15773 0.0749874 0.510601 -0.447413
31 1 8.52902 8.5875 11.4023 -0.870283 -0.840907 -2.35578 0.106271 -4.05023 0.00995662 -0.171782 -0.374631
127 1 8.51268 8.51384 8.67639 0.543186 -2.51071 -2.92754 0.26766 -4.03867 0.361325 -0.00860998 -0.729301
128 1 9.90582 10.0581 9.9208 -1.62524 4.02225 -1.45121 0.214003 -4.15674 0.00419685 -0.491965 0.303438
