ITEM: TIMESTEP
4000
ITEM: NUMBER OF ATOMS
128
ITEM: BOX BOUNDS pp pp pp
8.9668129029341515e-02 1.1374331870970449e+01
8.0147904784968915e-02 1.1383852095214895e+01
8.2649961496532934e-02 1.1381350038503349e+01
ITEM: ATOMS id type x y z vx vy vz c_csym c_peratom fx fy fz
2 1 1.56163 1.60128 1.43768 1.82915 -2.41897 0.352929 0.415878 -4.09036 -0.448694 -0.00374073 0.500446
11 1 2.95935 3.05374 0.0492246 2.78657 -0.964667 -3.35775 0.407855 -4.02353 -0.208185 -0.797371 -0.0439522
41 1 -0.0121878 2.95563 2.89048 -0.7119 -0.870107 -1.15558 0.37845 -4.09773 0.772349 -0.452494 0.0601107
43 1 2.92653 2.8025 2.97517 5.01066 1.11775 0.189707 0.310203 -3.97648 -0.201165 0.710337 -0.0543275
4 1 4.32641 1.49869 1.44373 2.46339 -1.20243 -0.645459 0.104658 -4.14617 -0.0369694 0.057651 0.467521
6 1 7.07618 1.53951 1.43775 -5.31766 2.54197 3.84758 0.240542 -4.09487 0.396054 -0.707612 0.578185
37 1 5.8295 0.0648712 2.85559 -3.36358 -3.04583 4.94466 0.271205 -4.09592 -0.494163 0.249619 0.376418
45 1 5.81074 2.86758 3.02146 0.77961 -1.55919 3.08692 0.451609 -4.13548 -0.400521 0.119361 -0.581901
9 1 11.3398 2.9746 0.19231 2.31082 0.519609 0.913723 0.248071 -4.06313 0.630703 -0.299416 -0.606858
8 1 9.88816 1.51188 1.49608 1.26662 0.127451 0.210228 0.0696063 -4.05346 0.126503 -0.0882447 -0.000644882
15 1 8.46327 2.90286 0.120482 3.81749 1.20266 -0.495233 0.152756 -4.13039 0.6943 0.377721 0.0584971
47 1 8.4305 2.92005 2.97957 1.90182 3.39898 2.63822 0.420827 -4.18702 1.05757 -0.0742917 -0.575775
10 1 1.59435 4.35209 1.59622 2.31862 2.15125 1.52691 0.392881 -4.13114 -0.245945 -0.321406 -0.569071
17 1 0.152596 5.72937 0.101029 -3.97169 2.03526 3.00092 0.137267 -4.08174 -0.105173 0.0492008 0.373067
18 1 1.55841 7.16741 1.53878 -0.875643 -1.09887 -4.2486 0.176058 -4.14521 -0.41655 0.031603 -0.823618
49 1 0.15513 5.61776 2.94803 2.20768 0.51903 2.92036 0.498088 -4.0833 -0.635083 0.984802 -0.268398
51 1 2.83067 5.8871 2.97398 2.34302 -0.302873 -0.264018 0.552183 -4.03123 0.83637 -0.963889 0.151722
12 1 4.24361 4.32454 1.60757 1.8603 -1.21287 -0.33308 0.365724 -4.09428 0.582339 -0.0812724 -0.3938
14 1 7.12015 4.38905 1.47815 2.34226 1.32148 -1.04353 0.233952 -4.12539 -0.193681 -0.833935 -0.297616
20 1 4.33136 7.14072 1.51493 -3.96942 -0.36134 -0.231949 0.111728 -4.07794 0.106099 0.211034 -0.173087
21 1 5.70955 5.74534 0.0384469 0.97652 -0.648685 0.633299 0.190348 -4.06829 -0.328722 -0.436058 0.0207009
22 1 7.17109 7.10074 1.37919 1.62676 0.920186 -1.29285 0.316612 -4.13007 -0.388779 -0.181758 0.494152
53 1 5.74098 5.6391 2.87054 0.73608 -0.706648 0.487322 0.272508 -4.02593 -0.264862 1.42186 0.49468
16 1 9.91633 4.32706 1.42343 -0.420811 0.476193 -1.13762 0.178108 -4.06136 0.0949375 -0.0535301 1.11399
23 1 8.58487 5.62629 0.0627509 -0.636474 -1.32244 -0.925756 0.138326 -4.02942 -0.610336 0.444875 -0.525486
24 1 9.93526 7.11335 1.39782 0.699929 0.751229 0.133157 0.262199 -4.1211 0.508626 0.0218009 0.736691
55 1 8.46388 5.7295 2.82731 0.877783 -0.162961 1.83329 0.199855 -4.13538 1.01643 0.199523 0.56638
1 1 0.16268 11.4198 0.139074 0.540677 1.12029 -2.53534 0.275566 -4.09919 -0.456088 -0.238621 -0.446018
3 1 2.88546 11.4015 -0.00585363 -0.462475 -1.66377 0.640793 0.217129 -4.11027 -0.485791 -0.711305 0.932256
35 1 2.71686 11.4557 2.88514 1.04621 4.28598 -1.60105 0.798333 -3.99434 1.33355 -0.443781 -0.270692
26 1 1.4043 9.91602 1.54748 1.05639 0.403431 -2.41383 0.429113 -4.05945 0.817497 0.347662 -0.458497
27 1 2.88232 8.64917 0.116553 1.23095 -0.304482 -1.77019 0.16662 -4.0895 0.0676771 -0.275653 0.00596685
59 1 3.01392 8.60555 2.85349 -3.14964 -3.84885 0.343037 0.293454 -4.0744 -0.105784 -0.0177373 0.364009
28 1 4.35005 10.0777 1.4949 -1.14174 0.34069 0.963457 0.173637 -4.06017 -0.244677 -0.350156 0.159753
29 1 5.73589 8.62096 0.0692721 2.89644 2.70769 -0.97764 0.140756 -4.09741 0.0190919 -0.204188 0.256809
30 1 7.15181 10.0417 1.44133 1.06478 0.233371 1.98943 0.161012 -4.0283 -0.0469981 -0.140789 -0.106932
61 1 5.89516 8.59466 2.97073 -0.0433014 3.01173 -2.36504 5.0438 -4.05249 -0.653249 -0.479708 -0.532694
33 1 11.3466 11.35 2.86247 3.59168 4.53326 -2.79978 0.099692 -4.11055 0.107181 0.551169 0.0204068
39 1 8.59337 11.3474 2.88314 -0.788887 -1.96513 2.82807 0.179869 -4.14187 -0.110662 0.125619 0.383074
57 1 11.4142 8.45582 2.88431 0.87343 -1.89016 -0.360595 0.264253 -4.05874 -0.439698 0.930562 -0.378045
32 1 9.96736 9.90775 1.40123 -1.78403 -0.994177 -1.36559 0.235756 -4.0912 0.235522 0.359522 0.730544
63 1 8.45995 8.60983 2.87986 -2.56804 -0.656872 -1.3047 5.02944 -4.14616 0.173797 0.121828 0.099983
34 1 1.46765 1.44826 4.41623 -0.250472 0.105952 1.70549 0.155809 -4.0621 0.0507713 0.420049 -0.399065
66 1 1.54212 1.53376 7.14577 -2.37764 -2.06721 1.75252 0.170987 -4.04265 -0.472643 -0.585212 -0.294223
75 1 2.98015 2.95295 5.84255 -1.10944 -4.19461 0.524189 0.298604 -4.09165 -0.21288 -0.534607 -0.648793
36 1 4.26543 1.42382 4.33779 -1.21956 0.845682 0.735846 0.204578 -4.10555 -0.0308311 0.0768331 -0.269089
38 1 7.17991 1.38219 4.27007 -1.97152 0.539764 -1.49705 0.411742 -3.9839 0.0273899 0.129553 0.539387
68 1 4.31621 1.39112 7.14136 3.23865 -2.54983 -1.98105 0.217689 -4.04505 -0.532605 1.12175 0.452334
70 1 7.18209 1.45334 7.23519 0.240853 -6.9278 -1.94422 0.254071 -4.10755 0.0437403 0.0999023 -0.519859
77 1 5.82795 2.84878 5.71388 -0.873347 3.16887 -3.50401 0.16257 -4.19132 -0.228192 0.0936176 -0.0207416
73 1 11.4333 2.89791 5.77698 0.915595 0.791315 -1.38421 0.0908575 -4.14052 -0.246535 0.446088 -0.271597
40 1 10.0956 1.51746 4.36018 -3.841 1.55035 -3.06812 0.452387 -3.99495 -0.657074 -0.243367 -0.245886
72 1 9.87849 1.47315 7.09026 0.30577 -5.27404 0.33591 0.183424 -4.09248 0.930168 0.482389 0.602473
79 1 8.62094 2.86656 5.67432 3.38794 -0.0575937 -0.215483 0.199744 -4.18439 -0.931151 0.401077 0.13058
42 1 1.58103 4.32143 4.25864 3.40614 1.91229 0.329579 0.362192 -4.06864 -0.208653 -0.592458 0.872536
50 1 1.51816 7.28262 4.36424 -0.536328 3.2643 -2.01296 0.356264 -4.1078 0.0281888 -0.548863 -0.142783
74 1 1.47992 4.35042 7.22846 -0.382131 3.45773 -1.11417 0.266222 -4.09414 0.17643 -0.26846 -0.803935
82 1 1.50928 7.03992 7.14249 -1.65015 -0.975428 -1.55436 0.315106 -4.09264 -0.329963 1.00621 -0.185862
83 1 2.86305 5.72145 5.70314 -1.54835 4.16146 2.2539 0.175951 -4.05347 0.415427 -0.0866026 0.458407
44 1 4.37027 4.29204 4.34842 -2.85334 0.904396 0.950216 0.0539677 -4.11459 -0.365959 0.375108 -0.300023
46 1 7.14323 4.4412 4.28255 -3.51786 -0.16843 0.0156005 0.523999 -4.0352 0.334498 -1.04119 0.367911
52 1 4.33358 7.14429 4.37018 0.744243 0.669867 4.67658 0.110828 -4.07404 0.0856765 0.130673 -0.113077
54 1 7.22625 7.05558 4.40229 -2.85737 -2.65608 0.943531 0.317532 -4.05138 -0.720055 0.546493 -0.559072
76 1 4.41519 4.28783 7.1336 0.870047 2.31739 0.398304 0.140836 -4.06204 -0.445419 0.332785 -0.202457
78 1 7.14955 4.30644 7.15587 3.20985 0.815849 -1.77003 0.0663411 -4.07873 0.29734 -0.193769 0.148831
84 1 4.25381 7.19321 7.17975 -0.0113971 2.63161 -0.208301 0.183554 -4.03906 0.56531 -0.87926 -0.822064
85 1 5.83685 5.6542 5.75956 0.237896 0.696224 -1.75497 0.284553 -4.05497 -0.797835 1.0373 0.421315
86 1 7.217 7.18801 7.21984 2.3238 2.83733 -2.50666 0.289608 -4.08154 -0.328145 -0.483039 -0.687891
81 1 11.297 5.76983 5.66353 -2.66907 1.09076 2.93583 0.267055 -4.13033 0.739334 -0.053049 0.0395049
48 1 9.96833 4.33061 4.36653 -0.490846 1.61443 0.128006 0.16179 -3.99062 -0.0673254 -0.494847 -0.806982
56 1 9.90932 7.21126 4.13286 0.0644341 -2.42049 -0.288937 0.752146 -4.01737 -0.0195983 -0.926959 0.802579
80 1 9.99645 4.31379 7.10861 -1.32152 -2.94377 -5.78142 0.0628706 -4.10473 0.00677146 -0.18763 0.374035
87 1 8.61023 5.66744 5.67966 0.912885 1.4438 -1.74892 0.24469 -4.14175 -0.238715 0.708572 0.874053
88 1 9.97257 7.08408 7.22596 -6.02076 4.61481 1.11222 0.233036 -4.08611 -0.0359547 0.00627192 -0.810665
65 1 0.0485178 11.3183 5.75684 2.0616 2.17829 0.649368 0.160875 -4.13838 0.295157 0.213755 -0.068509
67 1 2.84868 11.2692 5.76355 -1.74836 0.268041 3.98441 0.26872 -4.12049 -0.0729611 0.767283 0.0767002
58 1 1.56718 9.94982 4.21593 2.447 3.57155 -0.634442 0.48331 -4.12499 -0.992723 -0.231609 0.696911
89 1 0.0177026 8.53937 5.79702 -1.38472 -3.61163 3.8525 0.327662 -4.09278 0.199696 -0.0715367 -0.160618
90 1 1.34412 9.92751 7.17295 -4.07238 -0.336776 1.54305 0.353293 -4.03856 0.683996 0.253889 0.178934
91 1 2.87701 8.73156 5.77258 -2.58195 -3.88972 0.0104395 5.11456 -4.0713 -0.101159 -1.44896 -0.178292
69 1 5.67837 11.5206 5.76499 -3.29601 -0.707625 0.418857 0.483972 -4.04489 0.938875 -1.27532 -0.470782
60 1 4.35637 9.99872 4.32541 -0.528727 0.263717 0.742348 0.138613 -4.15039 -0.0378686 0.209875 -0.240602
62 1 7.10174 10.018 4.51579 -0.093513 -2.16264 0.222343 0.791285 -4.03786 0.178782 -0.227811 -0.670454
92 1 4.31548 9.96567 7.13464 1.3693 0.329818 -1.7799 0.0977368 -4.15372 0.404058 0.328327 0.253515
93 1 5.70953 8.50802 5.78946 1.71198 -2.27536 0.147829 0.181718 -4.0362 0.271321 0.262737 -0.103192
94 1 7.14643 10.0913 7.15273 -1.65038 -1.07038 1.22136 0.265688 -4.18609 0.0557167 -1.03704 -0.282658
71 1 8.58193 11.4287 5.75404 0.316261 2.27036 0.888403 0.138539 -4.10401 0.018846 -0.660475 -0.677534
64 1 10.0253 9.86744 4.33198 1.87399 -0.241205 -1.42402 0.211789 -4.0192 -0.426172 0.776646 -0.259192
95 1 8.59007 8.50124 5.71371 -0.401572 -1.53422 -0.480064 0.331093 -4.10352 0.123992 0.285412 0.449506
96 1 9.92971 10.0331 7.26044 0.825502 2.19889 -1.9016 0.309026 -4.10441 0.346441 -0.425101 -1.25817
98 1 1.53033 1.56072 10.0129 0.0325092 -2.71218 1.74617 0.188642 -4.06668 -0.313075 0.261265 -0.229295
107 1 2.94582 2.86175 8.4834 1.68353 -0.679781 -2.56134 0.22112 -4.13982 -0.310011 0.551714 0.549003
13 1 5.806 2.89209 11.3778 2.04848 2.35263 -0.244453 0.249702 -4.04521 -1.48322 0.607204 -0.0858825
100 1 4.25706 1.48285 10.0339 0.110589 1.03831 -2.34281 0.307264 -4.12169 0.568014 0.397667 -0.588905
102 1 7.19125 1.55944 9.98273 -3.04015 -1.44483 -2.51612 0.20611 -4.12976 -0.384331 -0.789139 -0.345358
109 1 5.71215 2.80212 8.55883 0.769998 2.23212 -1.00537 0.159442 -4.15328 0.0336946 0.338045 -0.22239
7 1 8.50432 0.136499 11.3891 -1.54023 2.33133 -1.43655 0.131476 -4.08839 0.123607 -0.633514 -0.0859509
105 1 11.3443 2.83217 8.48962 1.86851 -0.921675 0.511799 0.385865 -4.05619 0.1817 0.27018 0.417982
103 1 8.57361 0.0605949 8.55648 -3.60486 -0.576026 0.438463 0.193945 -4.07756 -0.234384 0.934214 0.761375
104 1 9.94513 1.57769 10.0997 -1.11032 -1.02729 -1.49829 0.330518 -4.08449 0.0333783 -0.347687 -0.680975
111 1 8.53293 2.92292 8.5425 -2.11264 0.561774 1.77942 0.112045 -4.07821 0.385621 -0.141783 0.0749452
19 1 2.90199 5.68088 11.3146 1.79318 -1.13889 -0.655438 0.34629 -4.0538 0.235636 0.466877 0.393008
106 1 1.43799 4.38139 9.96144 1.79645 -4.16549 -0.297293 0.221221 -4.09737 0.577742 -1.19109 -0.0108714
113 1 0.132844 5.68515 8.57583 1.47015 -1.43077 0.230194 0.0805361 -4.08619 -0.771573 0.653518 -0.284766
114 1 1.44058 7.19259 9.99179 -1.59604 0.0358031 -0.00734942 0.178447 -4.168 0.70042 -0.24206 -0.373118
115 1 2.89137 5.7574 8.49251 2.19178 -0.264832 -1.34249 0.215976 -4.0837 0.651776 -0.306862 1.06947
108 1 4.32811 4.27062 9.80902 -0.417775 -7.68371 0.804879 0.337279 -4.01081 0.178711 0.264277 0.934016
110 1 7.10489 4.22699 9.98776 -3.13297 1.87922 0.0856257 0.161894 -4.15457 0.432646 0.892919 -0.715488
116 1 4.2785 7.24165 10.0746 1.54575 2.52413 -2.20486 0.485231 -4.0652 0.0336565 -0.315947 -0.935923
117 1 5.71194 5.73511 8.55821 0.658144 -1.84408 -0.63856 0.0954827 -4.0744 -0.0127075 0.263341 0.0910338
118 1 7.16182 7.0396 9.95624 -1.96002 -2.58364 -1.58628 0.201212 -4.1265 0.217279 0.847726 0.0780893
112 1 9.99278 4.29764 9.97657 -0.227937 1.86022 2.07839 0.0618137 -4.18045 -0.233349 0.0268978 -0.171307
119 1 8.56848 5.70186 8.48541 -0.393018 -1.14216 -0.349887 0.163706 -4.01076 -0.186347 -0.289092 0.527388
120 1 10.0133 7.11186 9.94518 2.72014 -0.961382 -0.9574 0.10042 -4.21778 -0.820209 -0.0454901 0.679741
25 1 0.113708 8.63852 11.3451 -0.199286 1.58868 1.97955 0.257575 -4.04931 0.00180511 -0.59933 -0.0873171
97 1 0.0353101 11.4457 8.53578 -0.539702 -3.98222 0.117362 0.179003 -4.09679 0.27952 -0.0299662 0.593993
99 1 2.88461 11.4532 8.56385 2.2273 0.44374 3.63662 0.210603 -4.16605 -0.11853 -0.57215 -0.274824
121 1 0.0289333 8.46121 8.57657 0.708078 -1.81739 -1.53241 0.151671 -4.09265 0.357871 0.784981 -0.508579
122 1 1.50016 9.90777 9.8672 -2.21933 4.66714 4.11545 0.320906 -4.05285 -0.280829 0.591564 0.372518
123 1 2.88506 8.56818 8.44679 -0.63602 2.04281 0.03242 0.272589 -4.0929 -0.217985 0.0257512 0.857804
5 1 5.68494 11.3654 11.2971 -1.31924 0.532998 1.65148 0.182128 -4.10571 0.634507 0.00117249 -0.181865
101 1 5.74009 11.3673 8.51733 -1.91407 -0.337206 2.20479 0.113387 -4.08642 -0.250541 0.327362 0.837029
124 1 4.28973 9.96856 9.91645 -0.591959 -0.573572 3.13981 0.0573806 -4.11401 0.00209297 -0.0819746 -0.0445379
125 1 5.71471 8.51384 8.5288 5.41083 -1.95901 1.04885 0.156508 -4.07048 0.093317 0.0715513 0.164394
126 1 7.177 9.86313 9.84598 -1.15707 0.189294 0.253468 0.440598 -4.09203 -0.142305 0.539956 0.919766
31 1 8.56855 8.5334 11.4677 1.68181 -0.514961 -1.0032 0.405258 -4.00717 -0.62806 0.0381046 -1.2024
127 1 8.64167 8.61289 8.51184 -0.328133 0.288729 1.08138 0.289579 -4.00326 -0.907947 -1.03562 0.399651
128 1 9.88751 9.95427 9.98838 -1.13086 2.22399 0.461392 0.188666 -4.13608 0.80007 0.291192 0.205159
