ITEM: TIMESTEP
7250
ITEM: NUMBER OF ATOMS
128
ITEM: BOX BOUNDS pp pp pp
8.7321368506738217e-02 1.1376678631492965e+01
9.2185016099397998e-02 1.1371814983900407e+01
8.2649777892664034e-02 1.1381350222107217e+01
ITEM: ATOMS id type x y z vx vy vz c_csym c_peratom fx fy fz
2 1 1.48087 1.56428 1.44203 1.60807 1.32112 -1.24581 0.126969 -4.13287 -0.336746 -0.27364 0.230628
11 1 2.9431 2.97053 0.0600186 -1.12968 -1.1796 -4.12366 0.101112 -4.1288 0.215743 0.56402 -0.198299
41 1 0.0799545 2.87012 2.82441 -1.82437 0.515638 -1.59224 0.160618 -4.05602 -0.466909 0.277935 0.422778
43 1 2.95507 2.9544 2.83703 2.04113 -1.20769 -3.2145 0.0795982 -4.11781 -0.45385 -0.276303 0.437643
4 1 4.27836 1.57204 1.4902 2.23495 -2.58729 -1.28345 0.108911 -4.09021 0.570012 -0.214035 -0.233247
6 1 7.10828 1.56709 1.37947 -3.04981 -0.428977 -4.56641 0.182806 -4.0823 0.405893 -0.270947 0.492845
37 1 5.75086 0.0991303 2.78277 0.901243 -0.770472 -2.7874 0.324523 -4.02073 0.175645 0.050508 0.937968
45 1 5.73933 2.9288 2.84677 2.9469 0.455577 0.617834 0.115361 -4.02724 0.137038 -0.324331 -0.206603
9 1 11.3307 2.9222 0.0174249 -2.64648 2.19217 4.61325 0.0300649 -4.114 0.092023 0.266117 0.128716
8 1 9.95964 1.43943 1.48072 -1.00454 1.86875 -1.43799 0.0894556 -4.06676 0.387441 -0.00632882 0.134231
15 1 8.59171 2.89624 0.038999 4.53096 0.0132984 -0.57595 0.133575 -4.14857 -0.246917 -0.173615 0.137489
47 1 8.56034 2.8055 2.83397 3.15422 0.870624 2.1728 0.287361 -4.02121 0.247021 0.511566 0.134963
10 1 1.49212 4.29129 1.49696 -1.29917 3.5767 -1.93373 0.0982434 -4.09637 -0.329304 0.236208 0.00584727
17 1 0.0693969 5.67013 -0.0131378 -0.526906 -2.52672 3.9566 0.187289 -4.11764 0.0897996 0.239167 0.702793
18 1 1.36747 7.05824 1.56774 -4.31469 -0.901656 -0.634416 0.371399 -4.11506 0.524506 0.453147 -0.384037
49 1 -0.0505749 5.71612 2.90458 -3.5546 -0.444721 -0.84462 0.268432 -4.06534 0.530303 -0.63972 0.0836191
51 1 2.85557 5.70474 2.84476 2.31348 0.580948 0.496057 0.0675134 -4.06601 0.228152 0.346938 0.144217
12 1 4.38892 4.43899 1.51962 -1.52047 1.41374 -3.52915 0.287692 -4.1373 -0.272746 -0.548239 -0.00444426
14 1 7.10265 4.29847 1.4549 2.96236 -0.46446 -1.40398 0.168329 -4.15759 0.765164 -0.326887 1.03125
20 1 4.30236 7.13732 1.42359 -0.695133 0.874008 0.894016 0.197157 -4.1069 -0.42977 -0.215124 0.569709
21 1 5.82465 5.73825 0.206759 -4.44861 0.112116 1.18336 0.345875 -4.01045 -1.04153 0.481892 -1.45694
22 1 7.20399 7.02563 1.54047 2.75181 -0.967334 1.30156 0.27412 -4.10011 0.277248 0.545671 -0.624068
53 1 5.76959 5.86085 2.93621 1.15166 -2.33852 0.962269 0.532341 -4.1216 -0.421982 -0.716093 -0.0905023
16 1 9.88578 4.3428 1.42203 -2.44855 -0.296286 3.10249 0.246914 -4.05007 0.882813 -0.80667 1.00857
23 1 8.53791 5.60742 0.105027 0.847381 3.38119 0.643644 0.276938 -3.99859 0.00660461 1.45397 -0.37811
24 1 9.98574 7.1488 1.44914 -3.42364 1.15618 4.30858 0.279002 -4.13397 -0.325247 -0.367709 -0.16221
55 1 8.64911 5.80121 3.04573 -0.0745906 -1.06943 0.322325 4.70893 -4.06625 -0.690548 -1.0183 -1.17706
1 1 0.0946362 11.3211 0.0629549 -0.0113808 0.954747 -1.51127 0.206021 -4.11947 -0.114742 0.674828 -0.0934986
3 1 2.89327 11.4794 0.16705 -0.605628 -0.9663 4.06818 0.165949 -4.08837 0.396164 -0.800114 -0.462784
35 1 2.89826 11.4565 2.86775 0.874165 2.5438 0.363359 0.151099 -4.11139 0.301285 -0.240332 0.709088
26 1 1.48082 10.0117 1.57427 0.952629 -4.34 3.83642 0.168747 -4.10251 -0.0760077 -0.37761 -0.464139
27 1 2.89543 8.52736 0.115812 -0.628629 1.28967 0.871956 0.0998828 -4.06407 -0.380445 0.270199 -0.189773
59 1 2.87996 8.57581 2.90417 4.54628 1.88284 -2.65303 0.0925701 -4.06028 0.299059 -0.135374 -0.427316
28 1 4.33462 9.96111 1.54738 -1.6307 1.76819 -3.95372 0.072209 -4.05953 -0.0682792 0.0858681 -0.508299
29 1 5.75759 8.47866 0.188227 -1.50582 -2.30051 -1.91184 0.189602 -4.10206 -0.201569 0.339117 -0.482791
30 1 7.10013 9.88025 1.46397 -2.43373 2.97289 4.44662 0.120489 -3.99892 0.45548 0.833416 0.487378
61 1 5.74034 8.42833 2.88086 4.51246 3.80176 2.01795 0.204394 -4.20632 0.274286 0.484898 0.370491
33 1 11.4556 11.3148 3.04318 -3.39224 0.687886 3.53023 0.441049 -4.07748 -0.473455 0.781995 -0.368537
39 1 8.51014 11.4123 2.92628 0.0351112 -0.845182 -1.02842 0.152255 -4.03714 -0.192302 -0.372377 -0.224623
57 1 11.2556 8.50629 2.86145 -3.13996 -0.0116049 0.596939 0.358559 -4.06037 0.617755 0.363573 0.408989
32 1 10.0318 10.0401 1.60358 0.943153 -3.2342 -0.490465 0.564142 -4.03118 -0.700355 -0.513053 -0.501407
63 1 8.45626 8.40714 2.93989 -0.0290209 -0.165998 3.19241 4.74536 -4.15004 0.842114 1.23106 0.0571375
34 1 1.48394 1.5861 4.263 1.54449 -2.26553 -0.626857 0.364158 -3.98432 0.121994 -0.127301 0.0596616
66 1 1.56725 1.44015 7.32311 0.105884 6.68538 1.7399 0.726007 -3.98146 0.218002 0.366066 -0.957766
75 1 2.83714 2.82148 5.84912 1.16857 1.35684 -0.949429 4.72996 -4.08745 0.556119 0.537519 -0.792939
36 1 4.46123 1.59535 4.30618 -2.4622 0.105814 1.73425 0.517013 -4.06541 -0.732162 -0.513094 0.0412398
38 1 7.16977 1.60573 4.36403 1.15332 -0.0163113 -1.41357 0.352975 -4.16501 -0.47491 -0.938378 -0.264559
68 1 4.39095 1.46231 7.09893 2.62576 -2.05984 1.98765 0.306412 -4.11969 -0.899271 0.103042 0.585609
70 1 7.08693 1.35435 7.17654 1.65157 4.72728 4.47608 0.287745 -4.14309 0.591086 0.630463 -0.197367
77 1 5.72263 2.90239 5.84415 0.889686 2.39696 0.423519 0.404878 -4.03729 -0.0618891 0.469013 -0.630717
73 1 11.4532 2.91071 5.726 0.751576 0.795153 0.719079 0.260835 -4.10194 -0.361061 -0.267847 0.672542
40 1 9.94696 1.48894 4.40573 1.6592 -0.918125 -0.138188 0.155086 -4.09076 0.0397534 -0.0239703 -0.331736
72 1 9.83806 1.52192 7.16149 -1.489 -0.665842 0.402908 0.382553 -4.06249 0.532674 -0.128356 -0.512794
79 1 8.43662 2.90487 5.81196 2.39834 -1.63021 -0.185488 0.254746 -4.01404 0.830512 0.0813556 -0.158578
42 1 1.49318 4.29363 4.28172 -0.210901 -0.882162 -2.88109 0.127477 -4.07865 -0.255806 0.229463 -0.0581123
50 1 1.3719 7.179 4.20785 -2.34228 -0.344387 1.17054 0.402618 -4.15408 0.373892 -0.467716 0.899036
74 1 1.54036 4.34015 7.18261 2.42397 -0.947912 -3.60174 0.187623 -4.07374 -0.592589 -0.195075 0.472733
82 1 1.50044 7.22235 7.0904 0.323449 -0.365206 -0.356494 0.257699 -4.0737 -0.157608 -0.941823 0.944926
83 1 2.79501 5.63506 5.7194 3.38364 0.460642 -3.54768 0.457379 -3.99736 0.807274 0.866747 -0.511507
44 1 4.38118 4.32649 4.2076 -2.26596 0.392503 3.81356 4.85361 -4.11157 -0.490188 -0.310652 0.927966
46 1 7.09732 4.26967 4.23597 -0.343545 -1.07886 -4.94072 0.433465 -4.17237 0.479016 0.23105 0.367969
52 1 4.22806 7.14037 4.24089 -1.52592 -3.20216 0.228991 0.202707 -4.09961 0.0259651 -0.242628 0.609838
54 1 7.20926 7.04876 4.39109 2.18228 -1.70529 1.3335 0.274346 -4.04321 -0.279182 0.60334 0.0191765
76 1 4.27056 4.38059 7.13676 -1.86255 -3.02747 -0.61611 0.252627 -4.07973 0.619876 0.324976 -0.416128
78 1 7.10695 4.29853 7.11149 -2.07035 2.29995 -0.962998 0.0745808 -4.07322 -0.0934328 0.536272 0.358204
84 1 4.38327 7.11883 7.12901 -0.890088 -0.678874 2.15773 0.103017 -4.09506 -0.455366 0.00414543 -0.0171186
85 1 5.71663 5.76336 5.61582 2.56708 -5.50507 -1.76221 0.179398 -4.04696 -0.00726412 -0.424019 0.779572
86 1 7.1127 7.1843 7.09487 1.93566 0.219597 2.07882 0.135425 -4.08602 0.247139 -0.250385 0.585492
81 1 11.3867 5.73152 5.84187 -2.09053 -0.966002 -1.83082 0.222999 -4.09316 -0.0665263 -0.20796 -0.818904
48 1 9.89232 4.25631 4.36811 1.24282 2.60585 1.28342 0.242055 -4.07006 0.487899 -0.306401 0.0664256
56 1 9.99751 7.1251 4.3932 2.10297 0.821339 -0.599618 0.158748 -4.13522 0.174371 0.231993 0.141167
80 1 9.96134 4.36315 7.18381 -1.84929 -1.67466 0.203265 0.132554 -4.09682 0.424791 -0.718856 0.160086
87 1 8.6024 5.68506 5.81866 1.41286 1.20622 -0.184571 0.157189 -4.15823 -0.565942 0.282804 -0.545577
88 1 9.99693 7.11872 7.22236 0.452867 3.24636 -0.31973 0.157065 -4.11028 -0.121946 0.338517 0.0225305
65 1 0.169114 11.3837 5.83943 -1.5267 -0.038044 0.0663064 0.325142 -4.15818 -0.172905 0.125 -0.54196
67 1 2.87353 11.3745 5.62831 3.73351 2.80457 -1.17469 0.524489 -4.10799 0.144183 0.517817 -0.0430982
58 1 1.51236 9.85569 4.34475 -0.677199 1.62984 -5.09346 0.291336 -4.12722 -0.34921 0.070075 -0.145547
89 1 0.00638297 8.57293 5.81332 -1.23086 -4.37399 -2.35002 0.333923 -4.12095 0.603397 0.0613364 -0.242232
90 1 1.6437 9.93981 7.10468 -1.22837 1.61604 3.84405 0.422645 -4.10423 -0.396303 0.156449 0.24659
91 1 2.86844 8.45218 5.71428 0.742303 0.826829 1.314 0.321881 -4.00007 0.721097 0.521163 -0.337883
69 1 5.72125 11.3961 5.74407 -4.30906 1.89649 -0.0046749 0.148323 -4.01699 0.329459 -0.0737205 -0.758124
60 1 4.40788 9.90515 4.37731 1.02622 0.495419 -0.776502 4.82271 -4.08073 -0.725012 0.384262 -0.925525
62 1 7.14075 9.91824 4.40363 -2.58288 2.87121 -1.55656 0.239799 -4.05522 0.11545 0.581272 -1.06835
92 1 4.28442 10.0286 6.98708 2.25918 0.211085 -0.222466 0.482193 -4.19853 0.320936 -0.804832 0.814648
93 1 5.80906 8.50903 5.63516 -1.65805 -1.94087 0.88994 0.265817 -4.07025 -0.814299 -0.500538 0.747213
94 1 7.08799 9.9459 7.10638 -4.21341 1.48857 1.11543 0.114992 -4.16728 0.0344782 0.115871 -0.00152252
71 1 8.56556 11.2534 5.74551 2.25455 -0.59495 -2.37734 0.277411 -4.06513 -0.292539 0.821075 -0.143719
64 1 9.91146 9.87948 4.36423 1.40138 -0.78056 0.932162 0.116308 -4.06578 0.292458 0.517565 -0.416033
95 1 8.54989 8.49154 5.73323 -2.23535 -0.628324 2.46779 0.0602695 -4.20253 0.101555 0.0941493 0.311702
96 1 9.93911 9.98156 7.14298 0.570294 -0.364041 0.578541 0.0814177 -4.04167 0.393432 0.147397 -0.157927
98 1 1.54756 1.59505 9.99748 2.90391 -0.16675 -0.630969 0.15018 -4.07548 -0.0557061 -0.61115 -0.238262
107 1 3.01471 3.08825 8.58365 -1.2987 -3.00029 -1.1879 0.494954 -4.14812 -0.415033 -1.1535 0.152089
13 1 5.70446 2.91393 11.2862 -2.38618 -0.760772 4.89228 0.253833 -4.13777 -0.142896 0.113383 0.395738
100 1 4.3377 1.49486 9.92043 -5.60755 1.0492 0.371282 0.161945 -4.07335 -0.329187 -0.0423653 0.345367
102 1 7.14664 1.52802 9.99589 -1.87943 0.889587 -2.34948 0.0606658 -4.08867 -0.0302152 -0.145528 -0.336173
109 1 5.68649 2.89667 8.57699 0.950564 -1.21671 -3.15445 0.120994 -4.18886 0.501186 0.0607778 -0.425406
7 1 8.58115 0.0423991 11.334 -0.52067 -4.77562 -2.59204 0.169654 -4.14596 -0.312111 0.231127 0.334388
105 1 11.3768 2.7785 8.49984 0.81317 0.75872 -2.21883 0.563293 -4.06754 -0.241955 1.28256 0.3276
103 1 8.55209 0.0540583 8.61886 -0.0952063 -0.79201 -0.0931832 0.155291 -4.18351 -0.0884716 -0.108891 -0.0621002
104 1 9.92831 1.5638 9.90008 4.40569 1.08816 -3.06014 0.23495 -4.07109 0.404871 -0.657607 0.504477
111 1 8.50589 2.86761 8.53434 -1.17443 3.58812 2.15801 0.114282 -4.11586 -0.486126 0.544169 0.124149
19 1 2.8479 5.7679 11.3557 1.87717 -1.30702 -0.170688 0.145008 -4.13847 0.35101 -0.261745 -0.220832
106 1 1.45192 4.38074 9.86464 2.1987 1.92331 -1.34946 0.274636 -4.04221 0.300211 -1.1463 0.697448
113 1 0.123579 5.77809 8.61399 0.551498 0.809271 -2.81329 0.145272 -4.06184 -0.456458 0.170968 -0.999529
114 1 1.48558 7.12165 9.96407 -1.04281 3.99873 0.595779 0.110626 -4.03379 -0.0117367 0.738285 -0.0375836
115 1 2.94333 5.7528 8.65686 4.77745 0.655234 2.11459 0.360297 -4.13323 -0.192378 0.656814 -0.95534
108 1 4.49201 4.46114 9.87708 -1.12455 0.0879549 -2.81678 0.773214 -4.00319 -1.24821 -0.539269 1.37149
110 1 7.14643 4.38936 10.0121 2.46164 -1.17236 7.19515 0.258313 -4.17919 -0.0730776 -0.638803 -0.426176
116 1 4.43308 7.19001 9.98299 -4.03009 -1.40451 -3.11479 0.241133 -4.1185 -0.109185 -0.439278 0.0780894
117 1 5.81745 5.72882 8.52514 -1.74162 -0.732947 2.21202 0.133755 -4.0303 0.241378 0.635956 -0.495571
118 1 7.1834 7.17563 10.0369 -1.31621 2.59903 2.35845 0.113012 -4.18649 -0.0377245 -0.0100588 -0.582595
112 1 9.88637 4.31652 9.89909 1.32204 -1.66229 0.412494 0.194994 -4.1821 0.465967 0.0393408 -0.273961
119 1 8.51329 5.7223 8.50196 1.38388 2.00168 1.97696 0.15327 -4.02806 -0.0991204 0.0906349 0.178256
120 1 9.93722 7.12751 9.98175 2.16929 -1.76281 -2.71137 0.118829 -4.12013 -0.161543 0.204552 -0.292986
25 1 0.095609 8.58141 11.3578 -0.0405518 1.7924 -2.52919 0.123642 -4.10059 0.544031 -0.0676352 0.362152
97 1 0.0626907 11.3823 8.53686 2.30997 1.06359 3.08032 0.184448 -4.20878 -0.136004 -0.347452 0.225174
99 1 3.01752 11.3603 8.54786 -0.0165764 -1.8497 -1.49266 0.193692 -4.07895 -0.415884 0.00334264 0.216403
121 1 0.158367 8.72791 8.53317 0.780092 -2.22789 2.04607 0.507601 -4.13198 -0.0350764 -1.04102 0.144175
122 1 1.53459 10.0782 9.94946 -0.0277756 -2.0504 0.773761 0.197321 -4.04293 0.300666 -0.231475 0.178015
123 1 2.95815 8.59399 8.57999 2.62855 3.15006 0.554459 0.113476 -4.07115 -0.0571401 -0.316068 0.0733029
5 1 5.76771 11.4306 11.3484 -1.39854 0.736175 1.85942 0.148098 -4.14264 -0.414722 -0.312531 0.406088
101 1 5.7051 11.3731 8.58294 -1.48501 -2.87174 1.87712 0.0932555 -4.12776 0.225355 -0.364333 0.128395
124 1 4.36097 9.99486 10.024 -1.34622 -3.73498 -0.395132 0.0906468 -4.07965 -0.170042 -0.36335 0.30147
125 1 5.71805 8.60402 8.52694 -0.896868 -2.67077 1.72023 0.0713398 -4.00967 -0.0382626 -0.0206393 -0.0191404
126 1 7.08781 9.90674 10.0463 1.30745 -1.53974 -0.0400341 0.299057 -4.09482 0.201049 0.126131 -0.378709
31 1 8.53625 8.55062 11.4965 -1.65407 0.171029 -3.6527 0.229388 -4.04746 0.605495 0.240936 -0.453222
127 1 8.55694 8.67499 8.47022 -1.63779 -0.701256 -1.69925 0.509023 -4.04204 -0.237672 -0.84753 0.782281
128 1 10.0373 9.90556 10.0051 -0.988782 -1.65382 -1.39122 0.244366 -4.01572 -0.865515 0.14563 0.0347762
