ITEM: TIMESTEP
750
ITEM: NUMBER OF ATOMS
128
ITEM: BOX BOUNDS pp pp pp
7.7919504160466779e-02 1.1386080495839403e+01
8.5780634843261261e-02 1.1378219365156610e+01
8.2650145100401848e-02 1.1381349854899479e+01
ITEM: ATOMS id type x y z vx vy vz c_csym c_peratom fx fy fz
2 1 1.54619 1.53936 1.54478 -1.23201 -1.82199 -4.47282 0.204074 -4.08265 -0.793658 0.655943 -0.861175
11 1 2.90265 2.87895 0.155667 -0.377545 1.75578 3.21992 0.0522377 -4.0631 -0.128333 -0.120348 -0.471266
41 1 0.0946649 2.91949 2.93167 2.06961 -2.06992 2.62253 0.0478005 -4.13474 -0.110284 -0.149251 -0.00143074
43 1 2.89213 2.92992 2.98434 -2.74148 2.6428 1.76227 0.154408 -4.08907 0.0630857 -0.114305 -0.132391
4 1 4.37511 1.48271 1.55622 0.62229 -1.67105 -2.00506 0.19701 -4.20909 -0.046412 0.553571 -0.14411
6 1 7.10295 1.5756 1.49912 5.41354 -0.780879 -2.2053 0.207709 -4.13581 0.174043 -0.251298 -0.123593
37 1 5.83517 0.106311 2.96281 -0.179423 3.16271 -1.01616 0.309764 -4.02206 -0.602803 -0.00511228 -0.538117
45 1 5.83114 2.9539 2.94954 -0.353015 -1.91381 -5.26592 0.333577 -4.02787 -1.03476 -0.399771 -0.374167
9 1 11.3137 2.9588 -0.00744186 1.74583 -0.614138 1.27027 0.317554 -4.09483 0.20729 -0.291921 0.936643
8 1 10.05 1.57078 1.47573 -1.2753 1.37503 -1.40381 0.118807 -4.00165 -0.336639 -0.329947 0.130251
15 1 8.64083 2.87488 0.0762424 3.47047 2.86545 -1.83787 0.181472 -4.15194 -0.211793 0.074551 0.0482361
47 1 8.62513 2.96932 2.89773 -0.0602429 0.317793 -1.69443 0.141366 -4.17447 -0.58765 -0.846472 0.339698
10 1 1.44051 4.24557 1.49187 -3.57059 4.81302 -2.59991 0.244383 -4.08229 0.331954 0.613958 -0.340149
17 1 0.0505814 5.83748 0.109961 3.37657 -1.06509 -0.767457 0.245357 -4.05235 -0.159307 -0.670357 0.0524448
18 1 1.46452 7.19991 1.41104 -1.90263 2.14826 0.969053 0.136695 -4.07097 0.41885 -0.485161 0.837816
49 1 0.0941524 5.77287 2.85005 -0.742706 -0.678727 -1.16517 0.148939 -4.11322 -0.477216 -0.333075 0.237657
51 1 2.82937 5.73996 2.94759 -0.775467 -4.1958 -0.180718 0.189287 -4.17123 0.545844 0.166267 -1.12584
12 1 4.2594 4.23114 1.49965 1.37342 -6.83857 -1.11122 0.276568 -4.06427 -0.230185 0.566678 0.540184
14 1 7.14494 4.27436 1.48276 -1.27428 2.51836 -4.22151 0.110067 -4.10966 0.177228 0.529298 0.168319
20 1 4.29272 7.24038 1.47163 -0.642359 1.38896 2.83147 0.206948 -3.97935 -0.252761 -0.741052 0.472959
21 1 5.58622 5.71365 0.101091 3.25053 -0.530993 1.81092 0.480077 -4.08497 0.859292 -0.072028 0.0746122
22 1 7.35747 7.08189 1.44031 -0.0858497 0.744727 -1.00192 4.79936 -4.08017 -1.40021 0.181262 0.555271
53 1 5.71493 5.71206 2.87712 -3.35094 1.90503 -3.09822 0.100449 -4.10597 0.0122966 0.101066 -0.190539
16 1 9.90164 4.33911 1.55514 0.956175 0.168237 -0.032156 0.244229 -4.06214 1.12716 0.300358 -0.50536
23 1 8.5834 5.59223 0.0742442 -1.85502 0.492922 1.88641 0.34351 -4.02591 0.0351104 0.363141 -0.437947
24 1 9.902 7.23458 1.49294 2.54278 -0.43016 2.47498 4.44912 -4.2191 0.440416 -0.488328 0.46402
55 1 8.57758 5.7285 3.00667 -1.16522 0.935976 0.70875 0.321955 -4.05901 -0.338357 -0.253 -0.346897
1 1 0.177708 11.4724 0.130194 1.44519 -4.31944 -4.52631 0.303685 -4.08292 -0.482615 -0.592768 -0.205374
3 1 2.94776 11.3551 0.0409873 -0.277854 -0.453961 -2.63217 0.147005 -4.16577 -0.282196 0.120864 0.242873
35 1 2.86268 11.4543 2.78501 0.184908 -0.0905198 1.76296 0.462477 -4.00616 0.256062 -1.14148 0.930053
26 1 1.46356 9.91957 1.47366 3.10161 -3.602 1.92413 0.200901 -4.12381 0.216032 0.380053 0.015184
27 1 2.90712 8.58578 0.0686323 -2.25588 2.59938 -1.54952 0.0907694 -4.21724 0.02198 -0.171981 -0.0300033
59 1 2.87225 8.5573 2.90316 2.22183 2.50292 -1.69194 0.0596909 -4.1159 -0.0136628 -0.160362 -0.121778
28 1 4.35036 9.99831 1.49127 -0.452734 -0.180545 3.24733 0.0673082 -4.1112 -0.00575715 0.269312 0.143129
29 1 5.7398 8.47348 0.132383 -0.871939 -2.21419 -2.14898 0.197073 -4.10365 0.337509 0.173583 -0.273456
30 1 7.19476 10.0179 1.46768 1.80689 4.31636 -2.19784 0.208929 -4.0663 -0.56942 -0.170773 -0.767378
61 1 5.72595 8.5482 2.86503 -0.63467 2.05333 -2.35766 0.0657397 -4.10817 -0.0696457 0.0218912 -0.00416023
33 1 11.3715 11.4019 2.87893 1.55074 -0.587062 0.33867 0.197673 -4.11121 0.122673 -0.108798 0.155744
39 1 8.56711 11.4259 2.90641 0.286621 -2.76382 1.9419 0.0876086 -4.15999 0.385668 -0.0346925 0.0609224
57 1 11.5088 8.53231 2.92126 -5.58978 0.762779 3.07226 0.474725 -4.02615 -0.284921 -0.154155 0.164488
32 1 10.0669 9.73866 1.52151 1.91492 -2.00157 -1.72576 4.74168 -4.08568 -0.477111 1.43801 -0.533029
63 1 8.35648 8.68238 2.95655 2.1681 1.88549 -2.01305 1.34695 -4.0526 1.25886 -0.743913 -0.269879
34 1 1.54886 1.47715 4.39 -5.03705 3.01254 -2.01992 0.328278 -4.14975 -0.682222 0.0832152 -0.10555
66 1 1.55306 1.39551 7.18636 -5.65101 0.317677 -0.276646 0.437914 -4.00839 -0.221351 0.496986 -0.864028
75 1 2.8511 3.00834 5.7547 1.23225 -0.166792 0.936391 0.300614 -4.08455 0.415184 -0.060844 0.176682
36 1 4.27746 1.44842 4.32375 0.00642278 2.65164 -1.0148 0.231331 -4.2008 0.405477 0.473451 0.00966778
38 1 7.141 1.56037 4.33446 -1.47231 -1.82482 1.11465 0.0922598 -4.14841 0.0786622 -0.00231784 0.0864619
68 1 4.27756 1.4576 7.078 -0.428057 -0.61301 1.9936 0.325861 -4.0568 -0.102341 0.387715 0.417256
70 1 7.2274 1.4883 7.04518 -4.21927 -1.11679 -2.14916 0.311993 -4.07634 -0.229942 0.29335 0.695035
77 1 5.72032 2.97936 5.79643 0.282673 -0.180373 -1.25013 0.307139 -4.07585 -0.573397 -0.58236 -0.35911
73 1 11.302 3.03681 5.77292 3.17038 -2.52979 0.2692 0.492784 -4.04515 1.20981 -0.777705 0.479661
40 1 10.0299 1.56989 4.3257 1.05398 1.71462 3.17564 0.17049 -4.07644 -0.149477 -0.337704 0.0864501
72 1 9.98921 1.48926 7.10779 -1.25199 0.73081 2.61331 0.124075 -4.08186 -0.0969626 -0.166977 0.0998642
79 1 8.62723 2.91879 5.72015 0.0793847 0.921351 1.92317 0.165716 -4.13864 -0.0571323 -0.0137351 0.292449
42 1 1.44418 4.35915 4.22972 -3.24537 3.7686 -1.72672 0.189886 -4.09632 -0.127495 -0.438798 0.229746
50 1 1.40923 7.05079 4.31893 -1.43559 -0.930812 -0.35033 0.300054 -4.09366 0.441294 0.866192 0.203385
74 1 1.49708 4.47971 7.14782 1.53809 -0.916607 -0.0578049 0.373035 -4.02414 -0.336078 -0.740385 -0.0400421
82 1 1.56972 7.10653 7.0723 -1.40224 -0.0561469 -2.63232 0.205486 -4.11425 -0.222499 0.00627954 0.113188
83 1 2.91576 5.66351 5.52554 0.59484 4.50195 2.18062 0.755933 -4.14235 -0.143058 0.393332 1.44232
44 1 4.31917 4.30721 4.25778 2.28426 -0.264502 1.37457 0.170073 -4.04132 0.488775 -0.0901027 0.278126
46 1 7.16137 4.19954 4.38396 2.45885 -1.39923 0.588622 0.388502 -4.07332 -0.00815786 1.16808 -0.235447
52 1 4.22524 7.18043 4.27843 -4.14584 0.544556 -2.94293 0.21091 -4.01584 0.763248 -0.216131 -0.0929225
54 1 7.04684 7.15796 4.19984 -0.904897 -3.74689 0.274687 0.399645 -3.98276 0.497682 -0.250343 1.01925
76 1 4.38573 4.43871 7.21515 0.396612 2.32972 -1.50878 0.42975 -4.06393 -0.409629 -0.339648 -0.326682
78 1 7.13602 4.29214 7.13536 0.241089 1.11919 -1.3761 0.112033 -4.17116 0.396015 0.00914322 0.338618
84 1 4.29688 7.05696 7.17702 1.80815 1.91338 -1.60056 0.166181 -4.1418 -0.198868 0.419511 -0.0938682
85 1 5.70132 5.80463 5.72907 0.468867 0.145167 1.05865 0.217277 -4.11649 0.218496 -0.57755 -0.484036
86 1 7.14571 7.09009 7.12909 -1.04835 -2.55593 2.49395 0.156758 -4.10014 -0.553562 0.418265 -0.3159
81 1 11.3264 5.71064 5.6896 2.25472 -0.0539825 -4.51019 0.238875 -4.13273 -0.200755 0.150539 0.254762
48 1 9.96861 4.3038 4.35699 0.817889 -3.75162 1.09679 0.0962753 -4.05851 0.0565415 0.459511 -0.662598
56 1 9.90988 7.25453 4.23543 0.910253 -0.571894 1.99782 0.456647 -4.07832 0.130913 -0.298243 0.347531
80 1 9.90769 4.35075 7.3639 -3.81879 0.144619 0.922909 4.84387 -4.11133 0.094567 -0.0935618 -1.26152
87 1 8.51739 5.64009 5.72364 -5.76622 -0.074633 3.05394 0.175629 -4.08085 0.184867 0.763531 -0.242854
88 1 9.88083 7.11452 7.13 2.26216 2.24854 -5.19174 0.18592 -4.03061 0.561868 0.675071 -0.28045
65 1 0.0229141 11.2543 5.66833 -1.23447 2.15659 3.7621 0.536979 -4.02687 0.43024 0.939282 1.16073
67 1 2.88929 11.3253 5.7348 4.20712 3.9713 2.54127 0.0860488 -3.98325 0.448527 0.244615 0.133131
58 1 1.49764 10.0072 4.32458 -0.591764 -0.0338742 3.17685 0.123265 -4.1986 0.166977 -0.230087 -0.317677
89 1 0.116222 8.52653 5.76211 -1.09717 0.675351 1.57274 0.176923 -4.06654 -0.253765 0.278565 -0.0121091
90 1 1.64444 9.86565 7.06125 1.37305 1.85811 0.93012 0.593452 -4.04854 -1.00122 1.1095 0.521433
91 1 2.93267 8.49728 5.68444 -1.82867 -1.0141 0.682367 0.0807441 -4.07914 -0.218979 -0.0142235 0.0319706
69 1 5.7476 11.4438 5.80049 3.68076 0.0905442 2.27519 0.290555 -4.07313 0.130823 -0.694843 -0.438966
60 1 4.20452 10.0096 4.27568 1.44143 1.63454 -0.782002 0.303824 -4.12555 0.972043 0.106736 0.100845
62 1 7.08694 10.0096 4.32796 -0.494453 2.87077 -0.127381 0.101645 -4.00945 -0.530775 0.112745 0.540495
92 1 4.37554 9.94622 7.19039 -1.01462 0.968576 -1.95012 0.105586 -4.13444 -0.679192 0.0581458 -0.0233243
93 1 5.67055 8.56856 5.80055 0.241444 -0.955565 4.53104 0.139531 -4.10134 0.0981819 -0.289857 -1.1398
94 1 7.06656 9.86185 7.18167 -0.454031 0.860775 1.50887 0.225288 -4.05149 0.485142 0.654638 -0.0428231
71 1 8.56534 11.3311 5.61695 0.271514 1.35277 1.79805 0.349046 -4.15017 0.184416 -0.0644104 0.770653
64 1 10.0501 9.96429 4.26985 -1.62176 -0.705169 -1.54089 0.3272 -4.0567 -0.779255 -0.835436 -0.419044
95 1 8.39704 8.60205 5.67177 -1.26431 -0.980895 -1.03316 0.349236 -4.07119 0.937982 -0.263416 0.457258
96 1 9.94148 9.95574 7.28683 2.04033 0.728368 1.2399 0.549763 -3.9748 0.023757 -0.438762 -0.951295
98 1 1.50561 1.63905 9.99356 1.3464 -4.38429 -2.49879 0.237529 -4.1242 0.0206806 -0.351988 0.015942
107 1 2.89299 2.9579 8.5225 -1.54083 1.35401 1.77412 0.219523 -4.10097 0.0813605 -0.309847 -0.0760624
13 1 5.70513 2.99431 11.4293 2.99923 -3.04722 -3.68494 0.217469 -4.10305 0.318412 -0.513277 -0.580101
100 1 4.30925 1.52644 10.0175 -3.41313 -0.0670714 0.236377 0.118988 -4.04001 -0.224467 0.561502 -0.317514
102 1 7.16987 1.59401 10.0307 -2.77271 -0.723112 1.19862 0.225025 -4.02717 -0.0503592 -0.791466 -0.0459093
109 1 5.72272 2.88798 8.5562 0.355326 -2.82317 -3.52158 0.140136 -4.10515 -0.285744 -0.48567 -0.218327
7 1 8.61585 0.127124 11.426 -1.0034 -2.08412 0.658455 0.122763 -4.02105 0.000919249 -0.183084 -0.146618
105 1 11.434 2.91391 8.53927 0.379737 0.0161201 -0.418562 0.176435 -4.11783 0.183945 -0.0593367 -0.337962
103 1 8.50581 0.0208031 8.51641 -0.915361 -0.19963 1.61037 0.213632 -4.0499 0.00341382 0.610367 0.705491
104 1 10.0489 1.5026 9.93791 1.59936 3.22361 -1.15092 0.133527 -4.11305 -0.205232 -0.447322 -0.348256
111 1 8.61267 2.80451 8.63734 1.55798 -3.58401 2.37116 0.493354 -4.04882 -0.361781 0.427717 -0.805014
19 1 2.8764 5.8095 11.3275 1.23445 -0.410359 -1.33167 0.245416 -4.08869 0.433267 -0.882635 1.07235
106 1 1.44086 4.35246 10.0009 0.593173 -1.20988 3.74167 0.0848154 -4.18445 0.250473 0.0938819 -0.147193
113 1 0.0904174 5.89786 8.541 -2.80166 -4.23992 -1.53478 0.510286 -4.05569 0.260889 -0.923466 -0.171498
114 1 1.52742 7.1047 9.97975 -1.89232 0.901347 3.93775 0.183285 -4.11963 -0.0889349 0.44341 -0.661438
115 1 2.88032 5.70156 8.58776 1.7739 -1.05267 1.86697 0.0900763 -4.05505 0.250936 0.0822388 0.0567879
108 1 4.2225 4.24359 10.0555 0.423252 0.805189 2.95791 0.343396 -4.11861 0.48079 0.525068 -0.739694
110 1 7.16876 4.23555 9.85593 2.13273 2.51271 -0.594449 4.6077 -4.08517 0.0989722 0.302863 1.06786
116 1 4.28085 7.08317 9.90818 -0.244873 -1.21323 -2.96961 0.196846 -4.10203 0.0849611 0.387542 0.326373
117 1 5.80723 5.71133 8.66063 -1.22999 -0.768078 1.12711 0.332855 -4.11097 -0.562957 -0.0519073 -0.32553
118 1 7.17475 7.02949 10.1024 -1.74024 -1.65794 0.361122 0.41558 -4.10225 -0.27573 0.365942 -0.405919
112 1 10.0201 4.33993 9.90618 2.05374 1.09398 -1.18674 4.73283 -4.15983 -0.326137 0.260279 0.0723002
119 1 8.49307 5.83138 8.50449 2.27884 -0.996979 0.29943 0.573154 -4.04827 0.228681 -0.899298 0.94367
120 1 9.98398 7.11324 9.90906 0.483805 -1.51847 -2.58464 0.148936 -4.18393 -0.418227 0.524546 0.742383
25 1 0.198082 8.51823 11.2849 -2.24604 0.632468 -1.7576 0.493338 -4.10817 -0.721909 0.238575 0.0760844
97 1 0.156002 11.4487 8.54274 1.55962 -0.292132 -2.16343 0.313292 -4.04488 -0.303445 -0.97334 0.413421
99 1 2.97401 11.4016 8.69823 1.31117 3.279 3.7412 0.495031 -4.13346 -0.23586 -0.290046 -0.577951
121 1 0.176059 8.61166 8.56439 -1.77451 -0.190033 1.31724 0.358452 -4.08984 -0.426279 -0.677488 -0.295489
122 1 1.45225 10.0145 9.97715 -1.01773 0.332264 4.39625 0.183829 -4.03233 0.383287 0.0416912 -0.162397
123 1 2.85342 8.51959 8.54638 3.68432 2.46586 -1.40087 0.188652 -4.11257 0.248731 0.177787 0.322577
5 1 5.69581 11.4714 11.2757 0.738726 0.400805 -2.84115 0.472659 -4.04392 0.538292 -0.957781 0.739605
101 1 5.76342 11.3957 8.56053 1.36286 -0.685081 0.0597943 0.146166 -4.14645 -0.0846458 0.120267 0.20011
124 1 4.3519 9.79983 9.96947 1.44815 -4.01281 2.20657 0.489116 -4.03776 0.384994 0.717998 -0.139116
125 1 5.77723 8.4412 8.61284 -3.54271 -1.41824 1.82236 0.117342 -4.15626 -0.0823371 0.12874 -0.226204
126 1 7.15591 9.89313 9.98157 3.37633 -1.41166 0.885361 0.0940204 -4.06783 -0.098774 0.533856 0.352298
31 1 8.59934 8.45806 11.3017 0.195951 -0.188164 -1.3513 0.311609 -3.96765 -0.453695 0.82074 0.139326
127 1 8.43498 8.45421 8.64279 -0.745454 -4.59589 -1.91602 0.298698 -4.12338 0.597143 0.242652 -0.551438
128 1 9.96091 9.8804 10.0202 0.46854 4.43708 2.37096 0.285968 -4.07346 0.215324 0.759868 -0.316333
