ITEM: TIMESTEP
13250
ITEM: NUMBER OF ATOMS
128
ITEM: BOX BOUNDS pp pp pp
9.4750701915057967e-02 1.1369249298084689e+01
8.0781360385436152e-02 1.1383218639614455e+01
8.2649438931675270e-02 1.1381350561068206e+01
ITEM: ATOMS id type x y z vx vy vz c_csym c_peratom fx fy fz
2 1 1.56362 1.53102 1.4144 -2.29498 1.08725 3.99865 0.299648 -4.19455 -0.192801 -0.251391 0.478821
11 1 3.03821 2.89552 0.0588854 -1.99906 0.0215184 -3.38831 0.436207 -4.05984 -0.420763 0.454699 0.0124292
41 1 0.141851 2.90418 2.77322 -1.47008 -0.427982 2.12827 0.270124 -4.01109 0.171578 0.0575298 0.855314
43 1 2.89394 2.9151 3.00837 -2.54798 -3.86666 -2.62491 0.279448 -4.05954 -0.234889 -0.0529341 -0.491158
4 1 4.21001 1.486 1.57061 3.39383 -0.237946 0.0650907 0.552799 -4.07785 0.748786 0.448894 -0.10807
6 1 7.28325 1.45458 1.63072 1.59504 -0.168057 -1.14982 0.712902 -4.01318 -0.307213 0.902864 -0.769798
37 1 5.7658 0.166104 2.79593 -0.520723 3.45128 -0.14782 0.358725 -4.08811 -0.373593 -0.617863 1.13061
45 1 5.80241 2.95735 3.04069 -1.33038 -0.531604 0.573661 0.33551 -4.09477 -0.769738 -0.495521 -0.930926
9 1 11.3849 2.78315 -0.00221242 2.1518 0.167861 -1.77901 0.325038 -4.04055 -0.462903 0.683871 0.298693
8 1 9.99583 1.54733 1.51214 -2.45006 2.77931 -2.41499 0.162647 -4.13909 -0.479521 -0.557274 0.169029
15 1 8.55187 2.91637 0.114868 0.27211 -1.12637 3.07256 0.103963 -4.14729 -0.467841 -0.0979527 0.0961864
47 1 8.51743 3.05555 2.93681 2.19194 -3.33013 -1.00072 0.540777 -4.08427 0.201045 -1.36179 -0.489925
10 1 1.55286 4.28927 1.40643 0.0937641 3.04248 1.62587 0.236717 -4.14931 -0.589165 -0.497888 0.248141
17 1 0.0509046 5.81858 0.176404 -1.74681 -0.0786812 0.0346568 0.566804 -4.09965 0.0305276 -0.544249 -0.479086
18 1 1.49852 7.13819 1.54957 2.60503 1.16157 -1.44878 0.247781 -4.08594 0.452449 -0.136252 -0.743279
49 1 0.0548904 5.76941 2.80729 -0.32504 0.563715 -0.617873 0.248662 -4.13963 -0.0652769 -0.466746 0.229673
51 1 2.89258 5.66732 2.76123 2.54504 0.361283 2.09571 0.444246 -4.08007 -0.0789087 0.642388 1.18852
12 1 4.32263 4.27646 1.60508 1.51323 2.37293 -3.51741 0.255177 -4.0332 0.528385 -0.348228 -0.236835
14 1 7.07994 4.28451 1.53025 -0.288456 -3.55023 0.217087 0.21897 -3.99664 0.208703 0.174824 -0.123003
20 1 4.39098 7.14595 1.44466 -0.935545 -0.174952 -2.71115 0.25258 -4.0521 -0.941521 0.396422 0.427954
21 1 5.63645 5.67458 0.156378 -0.913502 1.50365 -5.34174 0.3726 -4.15301 0.631092 -0.215964 -0.327241
22 1 7.07024 7.27625 1.4508 -1.10377 0.539091 0.214652 0.420191 -4.0493 0.373634 -0.883422 0.5364
53 1 5.76683 5.77835 2.97886 0.191864 0.926005 2.41697 0.223964 -4.15852 -0.030747 -0.196597 -0.217733
16 1 9.98568 4.25547 1.48848 3.45877 -0.962543 0.0869593 0.232992 -4.10612 0.120963 0.00122402 -0.283709
23 1 8.52403 5.66763 0.21779 -4.30554 0.565707 -1.76977 0.519598 -4.081 -0.196447 0.861476 -0.726847
24 1 9.98269 7.27776 1.49967 4.2007 0.287356 -1.71195 0.308461 -4.06536 -0.23512 -0.303465 -0.106469
55 1 8.61024 5.76114 2.84589 3.47849 2.24863 -1.75095 0.128739 -4.13775 -0.580258 0.211687 0.420418
1 1 0.0330136 11.4707 0.0349468 -0.0347519 3.10515 0.304803 0.378882 -4.06505 0.946376 -0.90825 0.611823
3 1 2.91253 11.3353 0.148772 -3.51922 -1.45978 -1.98517 0.238994 -4.07205 -0.0329802 0.149981 0.0927902
35 1 2.92832 11.2429 2.8374 1.19828 3.19045 -1.65473 0.406074 -4.06538 -0.717356 1.35076 0.500499
26 1 1.48796 9.97031 1.54772 2.07882 0.00928338 0.459712 0.173855 -4.06694 0.254088 -0.489135 -1.427
27 1 2.82049 8.57352 0.00169682 -0.51049 -3.39537 -0.521948 0.46368 -4.06607 0.57208 -0.509544 0.67176
59 1 2.89949 8.53441 2.9299 1.06582 -1.44677 -0.653497 0.109186 -4.10428 0.623936 -0.264607 -0.773867
28 1 4.36022 9.98581 1.469 0.643827 0.667223 3.30343 0.157572 -4.14914 -0.162583 -0.275029 -0.153062
29 1 5.756 8.62503 0.12047 -0.363476 2.07068 2.41707 0.146478 -4.03436 -0.364292 0.486812 -0.625878
30 1 7.19531 10.0686 1.50571 1.19719 -0.00602553 -2.24419 0.213601 -4.11462 -0.840275 -0.651667 0.486451
61 1 5.61631 8.54513 2.93148 -2.14404 -0.855262 2.88036 0.36364 -4.06124 0.750959 -0.106215 0.119464
33 1 11.4404 11.2658 2.88761 0.839316 0.282169 0.955869 0.260366 -3.98141 -0.964856 0.435456 0.268948
39 1 8.60659 11.4407 3.04215 2.05439 -1.65121 -1.56116 4.62743 -4.02578 0.607286 -0.48257 -0.643043
57 1 11.4726 8.52798 2.87848 0.00179141 -1.50712 0.440707 0.168033 -4.12522 -0.472198 0.234629 0.203949
32 1 10.0254 9.9146 1.45478 -0.860234 2.27562 1.7558 0.206252 -4.08592 -0.608062 0.466946 0.210722
63 1 8.53775 8.61357 2.87708 2.93812 -1.16638 -1.59519 0.0947235 -4.08136 -0.0712065 -0.283017 -0.128651
34 1 1.35659 1.42101 4.22805 -0.450455 0.75604 -0.655046 0.564525 -4.02072 1.45866 0.565103 0.13627
66 1 1.49996 1.44881 7.18075 2.35608 -2.14659 5.22643 0.335042 -4.01556 -0.343236 0.481114 -0.879532
75 1 2.78452 2.95675 5.66927 -0.396878 -2.3776 -4.49948 0.398409 -4.1387 0.344163 -0.677187 0.444236
36 1 4.2549 1.45714 4.3049 1.76867 -1.0105 -1.9851 0.239813 -4.07961 0.26036 0.0312623 0.0651625
38 1 7.14144 1.49662 4.33409 -2.22985 -1.79275 0.254528 0.0631887 -4.14935 0.395212 0.590912 -0.112252
68 1 4.42972 1.57291 7.14704 -0.133767 0.48797 0.20415 0.481867 -4.06252 -0.36554 -1.22699 -1.05569
70 1 7.15645 1.49084 7.06001 0.567824 -1.44711 -0.467889 0.189192 -4.12341 0.164495 0.193089 0.460569
77 1 5.66018 2.92133 5.67556 -0.854955 -0.478566 -0.56148 0.201022 -4.06899 0.584563 0.103853 -0.258029
73 1 11.4162 3.01371 5.7722 -3.51802 -0.234272 -1.39206 0.496338 -4.13714 0.242038 -0.556313 0.392438
40 1 10.0377 1.58341 4.38993 1.2712 0.478702 0.804965 4.57152 -4.11312 -0.407644 0.0609273 -0.599048
72 1 9.95018 1.42253 7.06093 -2.08719 2.60501 2.84067 0.279797 -4.09985 -0.323569 0.770377 -0.36672
79 1 8.56226 2.92719 5.82613 2.85198 0.846185 2.94047 0.267165 -4.07154 0.0369817 -0.102397 -0.801518
42 1 1.4029 4.35769 4.27438 -0.883464 -0.192996 0.244774 0.185212 -4.11002 0.629167 0.12407 -0.319322
50 1 1.44882 7.06029 4.29487 -4.65876 -3.21568 -1.45377 0.125004 -4.1956 0.378646 0.283467 0.572681
74 1 1.60601 4.37056 7.27573 -0.295201 1.19278 2.051 0.736226 -4.03875 -1.04956 -0.275948 -0.181122
82 1 1.43399 7.18983 7.11451 0.278727 -1.04811 0.180652 0.387732 -4.11336 0.430246 -0.810776 0.646045
83 1 2.86956 5.67851 5.86486 -2.67024 -1.56874 1.64833 0.283466 -4.07564 0.20744 0.291311 -0.93557
44 1 4.23155 4.32066 4.3682 -1.69905 -3.44395 0.272319 0.231593 -4.08317 0.508518 0.425081 -0.104789
46 1 7.20368 4.32217 4.3384 0.575273 2.3186 -1.6288 0.181292 -4.02486 -0.700257 0.462918 0.595701
52 1 4.20681 7.09593 4.35335 1.14504 -0.836434 -0.2764 0.265261 -4.05141 0.303865 0.139732 -0.0671682
54 1 7.1531 7.25635 4.42892 -0.496795 1.20452 0.904432 0.321258 -3.99985 -0.158598 -0.363761 -0.843583
76 1 4.37621 4.26418 7.12637 -2.57202 -3.01535 -0.769694 0.208851 -4.16882 0.34057 0.195993 -0.0631216
78 1 7.1473 4.31934 7.09212 -1.13137 1.09582 4.21533 0.265523 -4.08012 -0.829865 -0.434953 0.89969
84 1 4.31921 7.0294 7.20808 -1.33392 -1.31541 -0.568822 0.295878 -4.09665 0.401418 0.79882 -0.502181
85 1 5.72362 5.82681 5.74815 1.65385 1.67965 1.08884 0.23691 -4.121 0.206462 -0.425771 -0.418593
86 1 7.01548 7.30511 7.10373 3.20934 -2.40239 -2.67995 0.520087 -4.05038 0.672981 -1.04041 0.635374
81 1 11.312 5.66363 5.69141 -3.82171 2.27502 1.28984 0.272859 -4.04886 0.0384261 0.146511 0.522997
48 1 10.0075 4.23106 4.25371 -3.58775 0.984884 1.63411 0.336224 -4.08645 -0.128188 0.778117 0.587596
56 1 10.0524 7.24276 4.27937 1.88161 1.57651 -0.540889 4.75361 -4.11789 -0.70308 -0.610776 0.379965
80 1 9.93366 4.28845 7.19835 -1.50971 -0.0329283 0.369706 0.145977 -4.07008 0.188411 0.0314274 -0.031426
87 1 8.4941 5.67481 5.7537 -0.656452 -0.307238 -1.77955 0.303796 -4.06263 0.818888 0.754051 -0.301777
88 1 10.0115 7.13919 7.06544 1.04834 -0.183906 0.831821 0.296119 -4.1132 -0.424796 0.0249585 0.36716
65 1 0.128966 11.3955 5.69687 0.666901 -1.09932 0.768339 0.238826 -4.06393 -0.132604 -0.604663 0.205175
67 1 2.92915 11.3396 5.75368 -1.61438 -2.6786 0.241996 0.189044 -4.04989 -0.456906 0.43595 -0.0334782
58 1 1.64821 9.84184 4.35744 1.04229 -3.33534 -1.86676 0.343621 -4.12758 -1.07457 0.613624 0.507715
89 1 0.0935896 8.57368 5.80542 2.39931 1.99704 3.14726 0.227269 -3.98595 0.327992 0.101256 -0.692015
90 1 1.41591 9.90485 7.23645 2.25431 1.26482 1.32375 0.329202 -4.12739 0.406354 0.522549 -0.266964
91 1 2.95398 8.48652 5.83716 -3.79383 -1.02539 -2.70445 0.411243 -4.07935 0.0142302 0.47466 -0.449083
69 1 5.82916 11.4215 5.67801 -4.52097 -1.58446 0.0988128 0.195055 -4.08854 -0.957628 -0.843938 0.517714
60 1 4.31983 10.0323 4.21806 -4.61109 1.68026 -1.91063 0.269968 -4.03919 0.309715 -0.290422 0.680726
62 1 7.15303 9.96161 4.28076 -0.302348 -1.15403 0.876336 0.165841 -4.12206 -0.515438 -0.155386 -0.339693
92 1 4.24248 9.99988 7.18169 2.65145 0.0203618 -1.24524 0.277062 -3.99569 0.502099 0.143439 -0.140624
93 1 5.65273 8.65013 5.76424 -0.885267 0.0630128 -3.30036 0.237883 -4.14881 -0.208143 -0.0735766 -0.325862
94 1 7.252 10.0385 7.18113 -1.09673 -0.393594 -2.83903 0.354203 -4.08292 -0.621248 -0.620982 -0.610012
71 1 8.50686 11.3202 5.59521 -0.530225 2.63592 -0.950779 0.48399 -4.1128 0.702695 0.269587 0.704028
64 1 9.98656 9.80496 4.32257 1.97104 2.19385 1.8854 0.520606 -4.12342 0.260775 1.11924 -0.0167232
95 1 8.50383 8.59605 5.76875 3.17225 1.99528 -0.692784 0.21146 -4.0858 0.472043 -0.0764049 0.0682138
96 1 9.9625 10.0279 7.08196 0.0629279 0.861319 -2.01563 0.16129 -4.17926 0.137167 -0.660412 0.260989
98 1 1.67252 1.51047 9.99822 -0.12255 -2.83283 0.140286 4.48072 -4.16023 -0.919357 -0.217179 -0.383816
107 1 2.99666 2.85862 8.3946 -0.556087 -0.131121 -2.18012 0.540267 -4.07384 -1.06361 0.575673 1.19
13 1 5.76288 2.9147 11.3622 0.795377 0.0558233 0.449234 0.184186 -4.13715 -0.108839 -0.414931 0.458224
100 1 4.23108 1.44497 9.93679 -1.90571 -0.913314 -1.26627 0.47063 -4.14449 0.649787 -0.0144203 0.0623068
102 1 7.19458 1.53 9.96553 2.33254 2.36137 5.87991 0.20334 -4.01279 0.323607 -0.904145 0.153844
109 1 5.7173 2.73612 8.65367 1.4342 3.30593 -2.20497 0.883037 -4.06523 0.705816 1.23907 -0.430454
7 1 8.55772 0.0319984 11.4355 1.22379 1.62306 3.86794 0.140286 -4.08665 0.127412 0.461584 -0.47899
105 1 11.332 2.79304 8.57282 3.26744 0.804276 0.567294 0.223629 -4.12174 -0.115247 0.0503031 -0.269774
103 1 8.63498 0.0999765 8.44594 0.421544 3.60907 1.81948 0.279092 -4.08768 -0.824214 0.197089 1.14743
104 1 9.86264 1.42268 10.0365 1.38775 0.859347 -2.3843 0.409538 -4.0831 0.236095 0.83129 -0.641356
111 1 8.54777 2.9246 8.6318 -1.32779 0.813141 -3.96634 0.175195 -4.06303 -0.0273713 -0.0996829 -0.742084
19 1 2.96587 5.63771 11.4206 -3.57975 1.67216 -0.680542 0.163259 -4.07347 0.0142004 0.534058 -0.736787
106 1 1.37701 4.23519 9.94621 -3.64209 -2.28484 -0.379965 0.575518 -4.0641 0.996877 0.253416 0.129462
113 1 0.0969167 5.6608 8.54429 -0.512925 -2.65371 -3.10012 0.104552 -4.03554 -0.528285 0.448642 -0.0319352
114 1 1.53666 6.96112 9.98452 4.12138 0.758874 0.847247 0.546726 -3.99224 -0.189479 0.715404 -0.386593
115 1 3.10079 5.69533 8.59895 -0.794891 4.50851 0.303922 5.23661 -3.988 -1.64981 0.26496 0.151226
108 1 4.36619 4.25241 9.84552 2.69551 -0.176816 -0.18551 0.393859 -4.09773 0.124269 -0.0902279 1.13158
110 1 7.06627 4.40067 9.93522 -0.105456 1.71213 2.29879 0.467853 -4.05126 1.46225 -0.93788 0.82691
116 1 4.43567 7.16475 9.99915 2.36175 2.72144 0.969729 0.254374 -4.12578 -0.353152 0.218237 0.193391
117 1 5.77951 5.69658 8.60803 1.00113 -3.54004 0.316914 0.22517 -4.02905 -0.934597 0.696004 -1.4113
118 1 7.04663 7.10651 9.96605 -2.74233 1.68507 0.815595 0.207701 -4.12225 0.470647 0.308603 0.574407
112 1 9.85855 4.27857 10.0167 -0.171169 1.29015 0.605443 0.255776 -4.06888 0.904 0.852348 -0.253747
119 1 8.5 5.85965 8.4621 -0.661861 -1.21388 2.81214 0.409052 -4.08016 0.0622266 -0.699604 0.00908856
120 1 9.92835 7.05403 9.89129 0.425015 -0.408742 -1.81755 0.413269 -3.97326 -0.0389226 0.0544589 1.12165
25 1 0.106057 8.54727 11.3493 1.06707 0.252168 1.2438 0.154509 -4.14946 0.110923 0.0636171 -0.520211
97 1 0.0139725 11.4515 8.48936 0.122562 1.89591 -0.08325 0.384271 -4.08963 0.765585 -0.30384 0.806177
99 1 2.92983 11.4898 8.466 1.30231 -0.470816 3.67377 0.440814 -4.04651 0.202621 -1.13887 0.397955
121 1 -0.0010347 8.52054 8.59704 3.31794 -0.737413 -0.210158 0.325542 -4.09531 0.458656 0.117541 0.342102
122 1 1.55162 10.0718 9.95187 -1.27275 -0.989569 0.234694 0.296828 -4.06244 -0.551289 -0.0817031 -0.345869
123 1 2.93217 8.55151 8.59462 0.157844 -1.28299 -0.353372 0.0897549 -4.10357 -0.122301 -0.269968 -0.0654834
5 1 5.70216 11.5742 11.3724 2.90435 -0.234982 1.66916 0.564145 -4.08956 0.440175 -0.758786 0.286404
101 1 5.81109 11.3108 8.54122 -0.0516091 -1.25716 -1.86143 0.292327 -4.08574 -0.703653 0.945314 -0.0481855
124 1 4.27691 10.0857 10.0102 -1.46188 -3.56579 0.46313 0.22478 -4.12606 0.416978 -0.550006 -0.291732
125 1 5.67436 8.61335 8.5151 1.1778 0.889551 -0.15184 0.279669 -4.12798 0.093545 0.010692 0.164915
126 1 7.09922 9.97202 9.95304 -3.37151 -2.93434 1.65623 0.100287 -4.07219 0.410773 0.178281 0.296266
31 1 8.48153 8.59994 11.3952 -2.40156 -0.192948 3.07169 0.152441 -4.06402 0.915768 -0.432135 -0.815275
127 1 8.59515 8.52393 8.61749 1.97963 -4.227 1.04731 0.362568 -4.11466 -0.355855 0.388563 -0.51243
128 1 9.9661 10.0738 9.91119 0.653905 0.600872 0.0555264 0.267058 -4.04706 -0.311307 -0.536995 0.515119
