ITEM: TIMESTEP
6500
ITEM: NUMBER OF ATOMS
128
ITEM: BOX BOUNDS pp pp pp
8.6366001715134644e-02 1.1377633998284573e+01
7.9707012266592159e-02 1.1384292987733179e+01
8.2649820262787624e-02 1.1381350179737094e+01
ITEM: ATOMS id type x y z vx vy vz c_csym c_peratom fx fy fz
2 1 1.49525 1.48787 1.5339 1.27579 -1.906 -0.36767 0.190071 -4.13589 -0.537411 0.520754 -0.269093
11 1 3.05212 2.88278 0.0980571 1.06432 -3.55579 3.53811 0.446521 -4.16204 -1.5676 0.347413 -0.589379
41 1 0.00162343 2.98372 2.9128 -0.367589 -0.48667 -0.0026808 0.305813 -3.9608 0.0680964 -0.892937 0.404831
43 1 2.95804 2.94715 2.80007 0.473667 -0.0896182 2.09758 0.369224 -4.0864 0.0128596 -0.406515 0.169509
4 1 4.32167 1.47845 1.42226 2.40473 -3.95003 -2.28359 0.156988 -4.06971 0.590234 -0.379711 0.942591
6 1 7.20497 1.50392 1.50654 2.16747 2.76447 1.09877 0.131592 -4.13247 -0.356249 -0.229303 -0.350804
37 1 5.76857 0.114276 2.9128 1.08083 1.00693 0.169637 0.0875731 -4.01715 -0.193701 -0.0692412 -0.111217
45 1 5.77215 2.94567 2.96249 1.14744 5.75512 -5.4527 0.281042 -4.13136 -0.192999 -0.125876 -0.274882
9 1 11.4301 2.98431 0.00502128 1.12595 0.453149 1.62698 0.293115 -4.03276 -0.248676 -0.670267 0.410519
8 1 9.92684 1.48668 1.36343 -2.32775 -1.42558 -2.59264 0.366294 -4.14247 0.467699 -0.0986424 0.835609
15 1 8.56519 2.7955 0.0386969 0.927163 -1.16128 -1.15729 0.273269 -3.92777 0.895307 1.71394 0.515961
47 1 8.54844 2.83912 2.99899 -0.193526 2.005 -2.51217 0.396489 -4.11616 0.582435 0.00500199 -0.35645
10 1 1.40493 4.26483 1.55295 -3.94744 2.64122 3.51028 0.43381 -4.08009 0.696169 0.426979 -0.19436
17 1 0.0982472 5.77247 0.0973049 4.33438 2.38868 -1.81584 0.0607911 -4.13665 -0.231574 -0.246852 0.127277
18 1 1.4763 7.14663 1.48857 1.25725 -1.46135 -0.685638 0.0696013 -4.07299 -0.222698 -0.129731 0.219286
49 1 0.0442053 5.79749 2.95269 -0.759241 3.20693 1.09755 0.12626 -4.10865 -0.158228 -0.594125 -0.115596
51 1 2.97637 5.72101 2.89969 3.30651 -1.79753 -0.696015 0.229922 -4.15833 -1.15454 -0.121794 -0.7287
12 1 4.30977 4.31074 1.45675 -2.4869 -1.85061 0.555083 0.104226 -4.01841 0.50534 0.439126 0.293033
14 1 7.29236 4.26183 1.39932 0.466184 2.24246 2.22682 0.613392 -4.07712 -0.740441 0.364921 0.0220335
20 1 4.33631 7.1084 1.52488 1.2208 1.4019 -0.493094 0.0758367 -4.09697 -0.0297113 0.292506 -0.382327
21 1 5.66423 5.75408 -0.00430912 1.12776 -4.65425 1.65084 0.25419 -4.06649 0.534623 -0.210179 0.77361
22 1 7.11985 7.14267 1.43538 0.382324 -0.849707 -1.18301 0.120395 -4.05161 0.369365 -0.312902 0.541812
53 1 5.73517 5.69039 2.93317 6.48983 -3.39753 0.758017 0.221421 -4.17703 0.582014 -0.439652 -0.425976
16 1 9.98274 4.29938 1.50644 0.857762 -1.4498 -1.58286 0.103448 -4.1393 -0.630038 0.0296621 -0.241882
23 1 8.69298 5.75264 0.0473113 -4.67493 2.47885 0.340911 0.275706 -4.06629 -0.691929 0.388208 0.0759465
24 1 9.93232 7.18584 1.51305 -1.34918 -1.19082 4.50044 0.0638499 -4.03941 0.0492634 0.073377 -0.147361
55 1 8.51427 5.8236 2.8512 -2.59452 2.00071 -1.07139 0.30538 -4.03609 0.784377 -0.0274229 0.154425
1 1 0.051118 11.3756 0.0321351 2.2964 -4.73531 2.31138 0.0477082 -4.11546 0.181504 0.188311 -0.165925
3 1 2.80802 11.4333 0.136532 -1.86716 0.607929 0.25732 0.338804 -4.07518 0.663156 -0.583508 -0.555684
35 1 2.89584 11.3527 2.83655 3.84343 2.40274 -2.65633 0.145295 -4.05004 -0.0317521 -0.0118209 0.0187042
26 1 1.37479 9.94572 1.40852 -2.07637 2.64115 0.578825 0.262667 -4.06517 0.623959 0.0736448 0.914124
27 1 2.82453 8.49934 0.141537 0.926557 -1.91454 -0.0206726 0.200168 -3.97433 0.465151 0.621832 -0.301159
59 1 2.88419 8.49425 2.95852 -2.56066 -0.503809 2.64418 0.185838 -4.14854 0.198437 0.319113 -0.493019
28 1 4.3898 9.93357 1.50232 0.502343 2.28542 -0.84498 0.159075 -4.0748 -0.563482 0.0485771 -0.131074
29 1 5.81372 8.53372 0.0994728 -1.32313 -1.8611 1.5259 0.201847 -4.0833 -1.11346 -0.336236 0.148147
30 1 7.16729 9.98825 1.55617 -2.56587 3.47514 -1.01033 0.169285 -4.08793 -0.386968 0.0611038 0.098752
61 1 5.71944 8.46831 2.95822 0.895202 0.636677 0.477748 0.182739 -4.11611 0.117434 0.231666 -0.263067
33 1 11.3429 11.4464 2.87421 3.43101 0.722797 -3.27938 0.165689 -4.02732 0.461838 0.0129717 0.208332
39 1 8.6072 11.4808 3.05745 1.49941 -1.90349 -0.447492 0.430572 -4.07758 0.204422 -0.918787 -1.10854
57 1 11.3228 8.5103 2.98133 -2.50117 0.232558 1.25696 0.272926 -4.18592 0.417662 0.566268 -0.548119
32 1 10.047 10.074 1.48536 0.156658 0.224862 -0.251162 0.474321 -4.03863 -0.929603 -0.577276 0.548879
63 1 8.54461 8.60682 3.03441 -1.43781 0.0220136 -1.56862 0.172717 -4.09956 0.177133 0.0183003 -0.816477
34 1 1.58003 1.6032 4.31042 -3.0576 -1.30859 0.121494 0.341228 -4.17069 -0.483375 -0.484314 0.145765
66 1 1.48702 1.37316 7.13846 1.44569 -1.09465 1.17833 0.393162 -4.11307 0.952037 1.42668 0.317325
75 1 3.0696 2.80152 5.75191 -0.776907 0.0353564 1.32705 0.632393 -3.9496 -1.30863 0.939615 0.0956533
36 1 4.25011 1.43717 4.28825 -1.89411 -1.01333 -2.24314 0.360145 -4.10137 0.528079 -0.0311934 -0.185829
38 1 7.14542 1.40358 4.36679 -1.43866 1.95766 1.96944 0.217846 -4.06488 -0.299386 0.586729 -0.0246187
68 1 4.27834 1.54761 7.23773 1.4955 -1.18506 -0.511228 0.403851 -4.0602 0.99663 -0.738059 -0.425001
70 1 7.13195 1.56478 7.10285 1.62091 4.64444 0.393294 0.288891 -4.01285 -0.472099 -0.605858 0.887794
77 1 5.83375 2.9605 5.65121 0.177503 1.15806 -1.33154 0.445464 -4.10842 -0.629189 -0.224397 -0.0099561
73 1 11.2986 2.91248 5.84347 0.38627 1.00045 0.649354 0.438458 -4.0226 0.548196 0.0850454 -0.296587
40 1 10.0484 1.48994 4.35398 1.53218 3.89448 1.96011 0.241134 -4.11236 0.0191062 -0.00778293 0.337561
72 1 9.98041 1.35978 7.13047 -4.13041 -0.648544 1.74151 0.43232 -4.09257 0.0392953 0.60772 0.559914
79 1 8.56271 2.75812 5.7543 -0.606266 1.8905 1.20561 0.385425 -4.18078 0.262779 1.05963 -0.351796
42 1 1.54927 4.32195 4.35413 -1.44294 0.488498 0.261458 0.132749 -4.15927 -0.278418 -0.653601 -0.257055
50 1 1.48537 7.09767 4.28279 1.04643 -1.72612 3.82007 0.140945 -4.03149 -0.138733 -0.243335 -0.0535158
74 1 1.63722 4.25685 7.16173 0.607831 1.16337 -2.39201 0.395891 -4.11068 -0.465542 0.0312629 -0.533604
82 1 1.44132 7.14568 7.21564 -3.0622 -0.261741 -1.56585 0.345588 -4.09694 0.464465 0.314397 -0.466002
83 1 2.8303 5.78892 5.74708 0.557041 -1.88392 -1.18327 0.355527 -4.107 0.544993 -0.124027 0.160978
44 1 4.17332 4.30196 4.3171 2.66836 1.82259 -1.68412 0.71982 -4.09382 0.725194 -0.054775 0.357453
46 1 7.34601 4.38344 4.22543 -1.2636 0.160412 1.62046 0.860405 -3.96684 -0.99449 -0.247667 1.20498
52 1 4.34129 6.9478 4.29275 1.23352 -1.52108 -1.93898 0.469004 -4.05219 -0.104898 1.2731 0.675433
54 1 7.12337 7.18572 4.37546 0.590824 3.0685 -1.66413 0.165494 -4.10735 0.599936 -0.424071 -0.307925
76 1 4.31653 4.28989 7.14809 -1.5522 -2.40836 1.65916 0.144463 -4.07457 0.352873 0.623128 0.11827
78 1 7.19971 4.27389 7.21178 0.651749 -0.574425 1.45829 0.0970032 -4.06774 -0.408141 0.602028 -0.412154
84 1 4.29217 7.24266 7.13784 2.08029 -0.74001 1.24831 0.171999 -4.01435 0.00560523 -0.790147 -0.0097873
85 1 5.78387 5.65033 5.68387 2.61064 -3.13094 1.89196 0.291941 -4.0626 -0.316895 0.105299 0.167907
86 1 7.13432 7.11822 7.09784 0.113093 -1.01703 4.09883 0.18125 -4.08061 0.05738 0.126101 -0.210706
81 1 11.4685 5.68891 5.75144 -1.5085 -2.6961 2.00597 0.240852 -4.1398 -0.408415 0.295404 0.124766
48 1 9.94678 4.29824 4.45897 -0.130288 -0.664901 -2.97815 4.64995 -4.06499 0.293303 0.401812 -0.941967
56 1 9.95192 7.1953 4.39006 -1.36791 -0.734308 0.80713 0.13673 -4.10347 -0.18883 -0.705341 0.0410383
80 1 9.91252 4.35831 7.162 -1.89013 2.39186 1.62525 0.237495 -4.11719 -0.0826484 -0.0781894 -0.122788
87 1 8.60466 5.75795 5.73906 -3.56155 3.47007 -3.9044 0.139871 -4.03407 -0.543598 -0.141365 0.0998829
88 1 9.93905 7.21291 7.05286 0.0745622 -1.28652 -1.27224 0.248581 -4.08042 0.175234 -0.101302 1.09664
65 1 0.218721 11.3695 5.74664 0.539694 -0.181775 0.588984 0.187345 -4.02861 -0.866685 -0.00276935 -0.873545
67 1 2.94308 11.3118 5.77311 0.656924 -0.478815 3.12731 0.253648 -4.07984 -0.300311 0.568142 -0.654259
58 1 1.51774 10.0466 4.27309 0.394412 -0.0832963 -2.74814 0.300923 -4.09109 -0.331165 0.136999 -0.285589
89 1 0.136744 8.54905 5.65153 0.785183 -1.93158 0.523496 0.207288 -4.18597 0.109633 0.035292 0.325567
90 1 1.52127 9.94361 7.07917 -5.29031 1.59962 -2.99468 0.065668 -4.16347 -0.271729 0.480215 0.0876014
91 1 2.79849 8.5328 5.56941 -0.655657 2.09895 2.64975 0.564964 -4.1736 0.73065 -0.0136879 0.828318
69 1 5.72563 11.4437 5.81735 -0.972096 0.0737522 2.27047 0.289084 -4.12758 -0.553008 0.525258 -0.727879
60 1 4.3384 9.9957 4.28069 2.55778 2.80483 0.561902 0.210292 -4.12568 0.143087 -0.0266241 0.124848
62 1 7.08014 10.0544 4.3988 6.09794 0.957589 -4.0441 0.205603 -4.13376 -0.21665 -0.372363 -0.523957
92 1 4.31393 9.95495 7.03578 -0.374836 1.316 1.59412 0.183367 -4.0975 0.140714 -0.436502 0.758931
93 1 5.62972 8.47774 5.60427 1.5897 -1.77724 2.47012 0.484064 -4.07062 0.376911 0.607762 0.955837
94 1 7.02972 10.0359 7.08088 -8.17881 3.19181 -0.891649 0.265431 -4.01782 1.06484 -1.24008 0.0943603
71 1 8.49958 11.3633 5.76148 -0.830949 1.44216 0.41686 0.13587 -4.1524 0.507152 0.325938 -0.133138
64 1 10.0453 10.0043 4.38355 2.293 -3.06293 3.37556 0.181363 -4.09478 -0.391512 0.0798639 -0.0531912
95 1 8.54928 8.66502 5.71618 -1.91551 -0.535802 0.464176 0.127008 -4.0657 -0.131086 -0.0550655 0.255908
96 1 10.0762 10.0509 7.2001 3.68609 -1.63054 1.20517 4.88961 -4.09387 -0.817946 -0.457467 -0.465497
98 1 1.48739 1.48611 9.92746 -0.0575844 0.112257 1.20307 0.172039 -4.04669 0.565799 0.747838 0.598877
107 1 2.97343 2.95137 8.58445 -0.00849611 0.0576566 -1.43196 0.155156 -4.12782 -0.830496 -0.419012 0.342389
13 1 5.65279 2.92399 11.3198 -0.38588 -0.063684 0.876782 0.314003 -4.1175 0.41075 -0.0314679 0.570269
100 1 4.27397 1.46797 9.9301 0.134471 0.329956 -1.13439 0.162165 -4.06106 0.191863 -0.203051 0.312887
102 1 7.16348 1.54104 10.1174 2.68259 -3.17299 0.973244 0.679143 -4.03759 -1.13503 -1.005 -1.52072
109 1 5.68444 2.8745 8.63558 -2.98857 1.53808 -1.41209 0.169238 -4.14036 0.55094 0.213717 -0.387266
7 1 8.51053 -0.0947449 11.3088 -3.08375 -0.199759 -4.66409 0.741473 -4.11298 0.29164 0.945955 0.443087
105 1 11.4106 2.97112 8.50555 3.88215 1.46839 -1.0578 0.21556 -4.08143 -0.334805 -0.610024 0.128041
103 1 8.44104 0.136631 8.62331 -3.42075 0.100839 -0.0487949 0.44438 -4.10612 -0.138365 -0.688304 -0.376932
104 1 9.93277 1.48729 9.94979 -1.16933 -0.360803 0.741934 0.101467 -4.11686 0.55043 -0.0886166 -0.184108
111 1 8.52619 2.94468 8.57811 1.02907 -1.26045 -0.346724 0.15025 -4.07522 0.818796 -0.888208 -0.291062
19 1 2.85301 5.67689 11.447 -0.240092 1.02313 1.70764 0.165665 -4.15665 0.210366 0.0831308 -0.268477
106 1 1.5187 4.32115 9.98115 -0.614756 1.25045 4.55556 0.071677 -4.06595 0.223978 0.352638 -0.0640139
113 1 0.158263 5.66996 8.48844 -1.67395 1.94814 -3.70093 0.299441 -4.10825 -0.582687 -0.16924 0.219342
114 1 1.41944 7.13334 9.95843 1.39128 0.695806 0.490394 0.109813 -4.16322 0.455723 0.392514 0.00261339
115 1 2.8643 5.72012 8.55735 0.285644 -3.55599 -1.6306 0.0439541 -4.08337 0.345046 0.205805 0.0740174
108 1 4.34593 4.36952 9.95055 0.633537 -0.812194 3.2265 0.191354 -4.09424 -0.283402 -0.183823 -0.274426
110 1 7.2334 4.2709 9.9742 0.437832 -1.62642 -0.707547 0.244722 -4.1848 -0.676294 0.366479 0.591559
116 1 4.18537 7.17458 9.98241 -2.03197 1.81901 1.97567 0.314545 -4.09147 0.483101 0.401498 -0.0741179
117 1 5.80701 5.83351 8.66613 0.721833 -2.27876 0.532599 0.438944 -4.03138 -0.635007 -0.774301 -1.02957
118 1 7.16287 7.11091 10.042 2.0686 -0.911622 -1.20117 0.261059 -4.08708 0.166771 0.394356 0.0259448
112 1 9.95712 4.36742 9.94051 1.23242 3.02956 -1.75414 0.137547 -4.16837 0.221443 -0.565557 0.333836
119 1 8.5081 5.70885 8.63805 3.13034 3.26086 -0.718761 0.233219 -4.06425 0.186569 0.627271 -0.707248
120 1 10.0053 7.13441 9.89548 1.09999 -1.28227 -0.346475 0.278445 -4.10502 -0.014459 0.388316 -0.181932
25 1 -0.0150868 8.57124 11.419 0.611231 0.707091 1.59263 0.206791 -4.11225 0.229868 -0.117972 -0.517922
97 1 0.215053 11.3805 8.6286 3.19443 0.333749 2.33849 0.505006 -4.05013 -1.18096 0.272941 -0.976926
99 1 2.9345 11.4061 8.53853 -1.80218 3.0957 -0.915852 0.126799 -4.15529 -0.155185 -0.577099 0.068872
121 1 0.158999 8.68235 8.5023 -2.0054 -2.56303 -4.38279 0.389842 -3.95712 -0.613347 -1.18967 0.229645
122 1 1.42165 9.97603 9.96344 -2.96024 -4.35147 -3.4731 0.131937 -4.11927 1.08685 -0.52323 0.891803
123 1 2.82504 8.66103 8.49476 -0.662419 0.470209 2.0247 0.249073 -4.01567 0.586243 -0.730781 0.379289
5 1 5.70716 11.3694 11.3149 2.26182 -0.655567 -1.00275 0.190209 -4.10442 0.12695 0.16771 0.354833
101 1 5.74655 11.2864 8.54769 -3.15632 -1.91463 1.04032 0.303461 -4.15166 -0.230687 1.05648 0.48154
124 1 4.36484 9.93178 9.93541 -0.0204332 0.322622 -2.89726 0.179237 -4.01834 -0.816335 -0.0569244 0.501811
125 1 5.7763 8.5916 8.51341 2.70929 -2.86688 0.346311 0.231917 -4.13477 -0.237562 -0.525955 0.496103
126 1 7.04292 9.89398 10.0429 0.0749476 -2.14123 -0.247397 0.317948 -4.02089 0.583095 0.681236 -0.820983
31 1 8.55086 8.63117 11.352 -1.6705 -0.415849 -5.84518 0.181177 -4.16626 0.331054 -0.715546 0.246522
127 1 8.39704 8.56084 8.61808 0.269371 1.17062 -2.83195 4.69167 -4.06205 0.548675 0.185598 -0.584813
128 1 9.92604 9.94287 9.84551 -3.11787 -0.805799 0.934736 0.407458 -4.11686 0.396534 0.241955 0.618571
