ITEM: TIMESTEP
16000
ITEM: NUMBER OF ATOMS
128
ITEM: BOX BOUNDS pp pp pp
9.4402737794328395e-02 1.1369597262205412e+01
1.0234298190367053e-01 1.1361657018096178e+01
8.2649283574555435e-02 1.1381350716425326e+01
ITEM: ATOMS id type x y z vx vy vz c_csym c_peratom fx fy fz
2 1 1.53539 1.58418 1.39464 -0.0342413 0.31366 1.62887 0.227515 -4.08904 -0.914839 -0.444704 0.486933
11 1 2.86075 2.92645 -0.0331599 0.291048 -0.970101 -1.75528 0.270869 -4.04322 0.374026 -0.139165 0.78789
41 1 0.18326 3.01362 2.88364 -1.42457 -1.68982 3.06345 0.366402 -4.12568 -0.414852 -0.64577 -0.158993
43 1 2.83097 2.84452 2.88982 2.29949 1.87979 -1.54614 0.284459 -4.04894 0.717298 0.79013 0.289343
4 1 4.29248 1.53127 1.43797 -2.12664 0.584075 0.4526 0.0980307 -4.23554 0.385801 0.269431 0.353559
6 1 7.13584 1.61281 1.53744 -1.64589 -3.49217 0.0284917 0.208119 -4.1805 -0.00496664 -0.461403 -0.166079
37 1 5.67485 0.0587918 2.92571 -2.07897 0.519339 0.258602 0.201155 -4.09319 0.721229 0.169491 0.311068
45 1 5.77551 2.98268 2.94571 0.592104 -5.54907 0.739438 0.129197 -3.97138 -0.690944 -0.156984 -0.357366
9 1 11.3581 3.01643 0.070178 -5.15643 1.78143 -1.63663 0.308967 -4.0851 -0.00710162 -1.48557 -0.669982
8 1 9.89907 1.52604 1.56879 3.70329 -1.17583 -2.81794 0.312253 -4.0816 0.76077 0.167083 -0.354836
15 1 8.66613 2.89581 0.100743 -0.905233 2.47844 -4.97375 0.381518 -4.06103 -0.913644 -0.341235 -0.747571
47 1 8.54178 2.92784 2.90281 -0.564593 -2.4483 0.537049 0.0799769 -4.04533 0.339315 0.503487 -0.407053
10 1 1.5696 4.23923 1.41986 -2.03654 -0.235922 -2.15454 0.348062 -4.09056 -0.00432507 1.13663 0.43213
17 1 0.0776906 5.73275 0.147212 6.20987 3.97724 0.42076 0.254038 -4.09309 0.00778058 -0.207904 -0.441141
18 1 1.56868 6.99114 1.49622 -1.55701 -2.88644 1.39387 0.346467 -4.07206 -0.454794 0.639897 0.00727269
49 1 0.116504 5.70376 2.95303 -2.98897 -3.04712 -0.0678046 0.156253 -4.09877 -0.211352 -0.282339 -0.660309
51 1 2.98233 5.71493 2.99835 -1.03362 5.84151 0.837585 0.215022 -4.12346 -0.686496 -0.0118418 -0.45379
12 1 4.35446 4.33083 1.58847 -1.19987 -1.93596 -1.26029 0.274624 -4.08147 -0.310832 -0.307964 -0.631646
14 1 7.15143 4.3204 1.43668 0.887885 -1.65724 -2.13625 0.162105 -4.14955 -0.227292 0.0816871 0.382853
20 1 4.29609 7.12348 1.48943 0.639816 -1.95848 -1.16147 0.080234 -4.05228 0.264444 -0.0370617 0.297069
21 1 5.69702 5.8499 0.0383897 -0.309565 1.18845 -1.61048 0.334833 -4.1833 0.446107 -0.866402 0.354533
22 1 7.19235 7.20864 1.49703 4.51802 -5.62951 1.05933 0.161069 -4.04834 -1.01778 -0.0227973 0.412723
53 1 5.70159 5.78906 2.9148 -1.40189 5.62355 1.17005 0.140472 -4.11317 0.773608 -0.450941 -0.518716
16 1 9.95879 4.23016 1.45102 1.08541 -1.44036 2.95906 0.422326 -4.06256 -0.0353541 1.45565 1.05792
23 1 8.51294 5.8253 0.170128 -4.6415 -1.78508 -2.12807 0.456346 -4.0926 0.350196 -0.71931 -1.34757
24 1 9.97619 7.14125 1.45028 -2.88223 3.47518 -2.46703 0.0584571 -4.05923 0.168758 0.0482195 0.448476
55 1 8.47071 5.79046 2.85376 -3.40193 -1.90789 -1.33402 0.283037 -4.08079 0.973099 -0.431187 0.260725
1 1 -0.0054501 11.3915 -0.0439273 4.31371 -0.0271306 -2.0153 0.398737 -4.12391 0.627526 -0.215954 0.853322
3 1 2.81252 11.3804 0.123098 -1.45821 0.859646 -1.27996 0.240635 -4.06033 0.459953 -0.434404 -0.208835
35 1 2.86056 11.4201 2.8301 1.18949 -2.62565 -2.51008 0.0897131 -4.11803 0.0905238 0.0520307 0.605439
26 1 1.49226 9.97942 1.55661 -2.58586 -3.52576 1.51765 0.261484 -4.05395 0.111814 -0.0468609 -0.784933
27 1 2.90038 8.43121 0.120077 -1.43101 -0.483183 1.2769 0.224046 -4.1138 0.00563468 0.900783 0.0737472
59 1 2.87632 8.52438 2.85081 0.923474 1.78409 3.32168 0.135772 -4.11477 0.288585 -0.195242 0.472476
28 1 4.27724 10.0331 1.57537 1.40996 1.67351 -5.68118 0.237575 -4.08908 -0.115814 -0.768476 -0.961647
29 1 5.70036 8.49037 0.125107 -0.341417 -5.1202 0.963642 0.192585 -4.10274 0.0253162 0.616107 0.0652785
30 1 7.16073 9.91227 1.51668 1.44689 -3.60126 -0.412979 0.0564874 -4.05937 -0.0755957 0.264875 -0.221318
61 1 5.72081 8.56225 2.95604 0.793988 -2.2912 0.16743 0.119698 -4.14565 -0.34584 0.0261779 -0.435077
33 1 11.3219 11.3696 2.85058 -1.69956 0.117347 -2.2457 0.0665212 -4.07609 0.381398 -0.0697438 0.124509
39 1 8.64297 11.2894 2.8903 -0.788268 -1.80953 -2.53897 0.233068 -4.10062 -0.957601 0.0275627 0.0430811
57 1 11.3817 8.53721 2.76889 -0.0734565 0.219746 0.690272 0.337823 -4.0736 0.0122742 -0.30244 0.676918
32 1 10.0091 9.88188 1.45072 3.30421 -1.86079 1.84383 0.153743 -4.09621 -0.494734 0.472927 -0.159939
63 1 8.59138 8.53913 2.86375 2.62799 -5.23337 -0.860179 0.0781308 -4.16226 -0.0183922 -0.25479 0.272309
34 1 1.46498 1.52242 4.27219 -0.614192 0.233018 1.03261 0.0681339 -4.08652 0.0390386 -0.201902 0.219326
66 1 1.59967 1.54536 7.21227 -0.797548 3.75745 -3.83828 0.204773 -4.1607 -0.189587 -0.356153 -0.0466608
75 1 2.9154 2.9587 5.72969 -1.94032 -1.08566 3.24387 0.0712173 -4.11083 -0.226252 -0.133312 -0.0480032
36 1 4.3045 1.56724 4.25463 2.18887 1.07639 1.36057 0.206104 -4.08321 0.0907606 -0.215542 0.500581
38 1 7.16068 1.57298 4.16343 -2.55072 2.42684 -0.742233 0.696329 -4.02861 -0.179646 -0.99085 1.1663
68 1 4.2806 1.51808 7.23535 0.732014 4.01 -0.297218 0.228047 -4.09608 0.0949552 -0.439627 -0.245823
70 1 7.07186 1.47181 7.08425 1.21086 0.272222 1.90818 0.181427 -4.00929 0.480937 -0.317359 0.700665
77 1 5.70476 2.8608 5.81966 -2.16743 -1.55477 0.593365 0.374036 -4.07634 0.391459 0.200275 -0.707433
73 1 11.4373 2.84218 5.79858 -3.39634 -3.07793 -1.19307 0.301654 -4.09986 -0.455488 0.773152 -0.351476
40 1 9.98365 1.567 4.20704 -0.723189 0.663342 0.773777 0.371963 -4.08756 -0.228661 -0.295801 0.94559
72 1 9.9952 1.47839 7.15432 0.435355 0.239504 3.17345 0.136908 -4.06031 -0.399767 -0.415895 -0.0706957
79 1 8.50725 2.81146 5.79879 0.16115 0.591883 0.49721 0.538888 -4.05468 0.217982 0.517006 -0.512747
42 1 1.51944 4.32937 4.33186 -0.876984 0.0667233 -1.96215 0.156866 -4.08654 0.180963 -0.332778 -0.20293
50 1 1.41333 7.1642 4.3406 -1.60882 2.60082 -1.00984 0.328764 -4.108 0.249338 0.350103 -0.119013
74 1 1.48897 4.35015 7.23573 2.90305 0.920668 -0.0479925 0.305367 -4.14152 0.360933 -0.192075 -0.236594
82 1 1.51423 7.05803 7.14506 -1.8437 0.266036 2.15401 0.181008 -4.04375 -0.0745217 0.140105 0.355875
83 1 2.87004 5.79873 5.59531 1.14856 -0.831439 1.32138 0.579091 -4.09142 0.212891 -0.312067 1.04973
44 1 4.35727 4.33032 4.37235 -3.58104 -2.21588 0.238388 0.155537 -4.15019 -0.000316868 -0.267028 -0.369037
46 1 7.16077 4.2964 4.32373 4.65847 -0.193709 -0.65657 0.0751989 -4.17723 -0.273858 -0.00102014 0.191752
52 1 4.37843 7.11279 4.29772 -0.880378 0.282328 1.68365 0.172968 -4.07437 -0.481819 0.482861 0.514119
54 1 7.10692 7.07288 4.32951 1.22572 1.489 0.778137 0.190312 -4.12634 0.252096 0.640209 0.325414
76 1 4.26968 4.33396 7.1158 -0.729231 -3.38553 -1.43766 0.285742 -4.07394 0.23281 0.0651409 0.000239548
78 1 7.19176 4.46447 7.16206 -1.29381 2.34003 -2.61498 0.433033 -4.09377 -0.191851 -0.569016 -0.0347143
84 1 4.41624 7.0428 7.15326 -0.349506 -0.677238 1.00812 0.532147 -4.0545 -0.789797 0.403236 -0.308894
85 1 5.72351 5.65828 5.79401 -2.7073 0.843417 1.32096 0.257823 -4.02942 0.0568058 0.433018 -0.728422
86 1 7.10532 7.26721 7.08979 -0.985897 0.618232 -3.61549 0.457446 -4.13153 0.0479127 -0.955928 -0.1182
81 1 11.4038 5.59112 5.71712 1.94883 0.89272 -3.0949 0.401017 -4.07502 -0.481151 0.790817 0.0128402
48 1 9.95313 4.25896 4.2694 -0.147088 -0.737553 1.42413 0.160973 -4.07516 -0.227208 0.0766604 0.535725
56 1 10.0372 7.20808 4.26494 -0.444913 2.39958 -3.23094 0.331763 -4.11629 -0.199953 -0.685466 0.232541
80 1 9.85094 4.34681 7.15639 -0.913806 -0.148257 0.118076 0.273672 -4.12357 0.66038 -0.289009 0.104209
87 1 8.59689 5.74539 5.62362 -0.614614 -1.2232 -0.138259 0.277315 -4.01565 -0.0405068 0.106033 0.378101
88 1 9.91946 7.05186 7.09009 -1.43361 -2.13579 1.7482 0.351994 -4.11037 0.824807 -0.00960593 0.515101
65 1 0.141561 11.4314 5.76092 1.90142 0.540081 2.66284 0.134201 -4.04824 -0.16395 -0.442962 -0.254627
67 1 2.89683 11.384 5.71147 0.184856 0.781169 -2.26997 0.0610608 -4.10144 -0.28146 0.453682 -0.0991065
58 1 1.48915 9.93441 4.23402 0.0827161 2.53009 -1.424 0.129389 -4.12104 -0.149728 0.058416 0.638607
89 1 0.0557475 8.62012 5.81764 -1.49316 1.13985 0.806309 0.362651 -4.02841 0.497757 -0.425167 0.112964
90 1 1.56515 10.0154 7.19521 2.30491 -0.792876 -0.709445 0.130986 -4.05909 -0.456831 -0.459625 -0.584645
91 1 2.91787 8.54453 5.78582 -1.16366 0.218607 -2.34975 0.174146 -4.11534 0.101161 -0.130547 -0.116792
69 1 5.72507 11.2244 5.65574 1.09502 -0.0191226 3.00703 5.27372 -4.13276 0.130629 1.12314 0.215022
60 1 4.16544 10.0005 4.34519 1.36768 1.15692 -3.52718 0.401447 -4.02509 0.331746 -0.489225 -0.84113
62 1 7.21601 9.76923 4.32625 0.513985 3.03077 0.216004 0.508842 -3.99636 -0.288817 0.631725 -0.302956
92 1 4.21073 10.0781 7.17426 0.550854 -0.250994 1.72634 0.669525 -4.04485 0.981113 -0.757205 -0.341891
93 1 5.65452 8.65998 5.73085 0.512107 -0.0134861 -1.64505 4.60688 -4.15709 0.0318405 -0.40235 0.00831111
94 1 7.23528 9.94298 7.18665 -0.564245 0.454074 2.916 0.474883 -4.10485 -0.184088 -0.294288 -0.177526
71 1 8.43148 11.2776 5.65597 -0.462705 -0.840177 3.61617 0.591273 -4.05397 0.818286 0.969934 -0.0467097
64 1 9.952 9.87225 4.36684 -0.454207 1.20323 3.53819 0.241121 -4.10846 0.660927 0.644423 -0.470607
95 1 8.64644 8.45517 5.75916 2.28793 2.53744 -4.53974 0.346575 -4.06339 -0.629209 0.943533 -0.257372
96 1 9.94886 10.1039 7.22868 2.48927 2.75832 2.18984 0.592036 -4.071 -0.299609 -0.79794 -0.36615
98 1 1.53974 1.52284 9.8901 2.28347 0.959855 -1.74635 0.197329 -4.12871 0.0678416 0.31583 0.828498
107 1 2.94995 2.9183 8.64423 0.379238 -0.958055 1.65362 0.156024 -4.06249 -0.120161 0.064188 -0.543141
13 1 5.76558 2.97345 11.3602 0.104049 -0.823832 -0.950029 0.168345 -3.97862 -0.600722 -0.485065 0.466824
100 1 4.24781 1.423 10.0419 1.43635 2.04188 -1.40639 0.377795 -4.18805 0.982317 0.406231 -0.522557
102 1 7.06817 1.6017 9.97126 -0.0976777 1.10366 -1.49706 0.308169 -4.13347 0.48592 -0.730948 0.240986
109 1 5.76569 2.98831 8.52142 1.5952 1.48681 2.05054 0.277986 -4.11034 -0.296643 -0.186782 0.0940238
7 1 8.58268 0.137647 11.4112 -0.0391971 4.46364 2.74552 0.154223 -4.12016 -0.603168 0.261669 0.26756
105 1 11.3313 2.81332 8.55171 0.139562 -3.03763 0.487053 0.257029 -4.10977 0.0989439 0.572708 -0.0998602
103 1 8.48878 0.126997 8.60534 2.65437 2.42952 1.20446 0.213821 -4.08439 -0.148467 0.198628 -0.622966
104 1 9.86051 1.4668 9.88365 0.271562 0.419395 -3.94663 0.458187 -4.03471 0.607859 0.934275 0.634684
111 1 8.50031 2.90675 8.49108 -1.13 0.0171466 2.44915 0.147276 -4.10632 -0.0235465 -0.0803007 0.133577
19 1 3.01311 5.71219 11.3203 -0.466407 -1.80578 1.68889 0.25807 -4.16644 -0.190081 -0.112511 0.352668
106 1 1.47175 4.32681 9.96333 -0.887061 0.504816 3.54371 0.118557 -4.20248 -0.0623376 0.259469 -0.245053
113 1 0.0365379 5.70679 8.55757 2.58243 1.08413 -1.0038 0.0997044 -3.98093 0.449936 0.693486 -0.302024
114 1 1.57807 7.06756 9.99154 -1.2947 -0.248414 0.525884 0.0976874 -4.11279 -0.548892 -0.190578 -0.318888
115 1 3.04153 5.65629 8.61402 -3.62102 1.00666 1.19546 0.341178 -4.09104 -0.469298 0.578213 -0.259332
108 1 4.32572 4.24021 10.0154 -0.681867 3.09983 -1.3317 0.334586 -4.05424 0.578055 0.726067 -0.414509
110 1 7.17605 4.2153 10.0041 -0.430847 0.267226 -1.33733 0.617753 -4.01688 0.443883 1.18646 -0.099972
116 1 4.28948 7.18822 9.9482 -1.77945 -1.7063 2.56727 0.207573 -4.04044 0.582891 -0.220788 0.537294
117 1 5.76352 5.85644 8.68219 1.17908 0.17658 3.84453 0.593777 -4.13451 -0.463511 -1.65933 -0.717841
118 1 7.10246 7.21551 9.93197 0.52788 1.91886 -0.183371 0.118649 -4.02208 0.35285 0.905423 0.767692
112 1 10.0051 4.3479 9.88196 1.29017 -1.75988 -1.10511 0.321053 -4.07788 -1.07469 -0.083206 0.641107
119 1 8.462 5.87063 8.61166 2.41984 2.76665 2.14271 0.541655 -4.07245 0.418498 -0.828688 -0.323543
120 1 10.0255 7.1857 9.95421 4.67786 5.92572 -0.706596 0.223481 -4.06653 -0.300996 -0.354828 0.442733
25 1 0.124283 8.54229 11.3554 -2.93304 -0.0373804 -1.35694 0.0930057 -4.13535 0.146008 -0.00333647 0.0195218
97 1 0.207624 11.3522 8.64995 4.92255 -2.52109 2.55545 0.372771 -4.14806 -0.812571 -0.336961 -0.601829
99 1 2.89964 11.2749 8.61643 -1.69391 0.868896 -2.1625 0.256706 -4.05078 -0.145568 0.938475 0.550564
121 1 0.0784791 8.58621 8.59414 -3.11623 -0.702582 -0.535545 0.138563 -4.0767 0.214921 -0.0954667 -0.353306
122 1 1.59343 9.91557 10.0063 -2.04808 2.18793 0.758468 0.219399 -4.04125 -0.345318 -0.214732 -0.00354544
123 1 3.00035 8.45447 8.56722 -1.08998 -3.34301 -0.318557 0.249345 -4.11266 -1.08802 1.04747 -0.666628
5 1 5.77138 11.4031 11.4786 -5.01423 -0.301981 1.42664 0.206883 -3.96863 0.255566 -0.396316 -0.368349
101 1 5.84075 11.3427 8.58857 5.91605 -1.41309 -0.822334 0.36521 -4.03184 -0.662242 0.167796 -0.262393
124 1 4.35908 9.97981 10.0456 1.90883 -1.50008 1.39639 0.232671 -4.10498 -0.25703 -0.0768449 -0.0131371
125 1 5.66323 8.64067 8.42792 1.49117 -2.06486 1.58673 0.594261 -4.13592 0.359283 -0.454912 0.939314
126 1 7.24422 9.91917 9.98469 -0.327081 0.221861 -0.128238 5.10676 -4.11482 -1.09668 0.02343 -0.0269293
31 1 8.51512 8.53618 11.3933 2.23413 -4.09324 2.62143 0.0974479 -4.1662 0.69242 -0.133694 0.0517305
127 1 8.59651 8.44016 8.53126 -0.582879 2.07243 0.887858 0.525507 -4.11587 -0.0131784 0.660472 -0.138539
128 1 9.78153 9.97026 9.97427 1.58545 0.206944 -1.24188 4.67168 -4.0883 1.14958 -0.240427 -0.210071
