ITEM: TIMESTEP
14750
ITEM: NUMBER OF ATOMS
128
ITEM: BOX BOUNDS pp pp pp
8.9250908246206073e-02 1.1374749091753536e+01
9.9559472892201129e-02 1.1364440527107631e+01
8.2649354191428090e-02 1.1381350645808453e+01
ITEM: ATOMS id type x y z vx vy vz c_csym c_peratom fx fy fz
2 1 1.48327 1.51794 1.4733 1.7106 2.61981 2.08985 0.131175 -4.08046 0.152993 -0.64241 0.195308
11 1 2.95643 2.8432 0.0927673 -0.378371 -1.4405 3.84849 0.179699 -4.08227 -0.266157 0.538357 0.112412
41 1 0.0331019 2.96548 2.91246 -0.398237 0.520601 -2.80419 0.155639 -4.12895 -0.193387 -0.0707166 0.110131
43 1 2.8479 3.0016 2.90457 2.53198 -2.55252 -2.53549 0.236647 -4.05172 0.269663 -0.783282 -0.461644
4 1 4.33961 1.4824 1.52462 -2.138 -2.0373 1.89101 0.0533021 -4.06232 -0.314957 -0.00679898 0.315621
6 1 7.22669 1.53816 1.61249 1.21593 -0.369551 1.07286 0.298363 -4.10852 -0.539757 -0.284785 -0.330062
37 1 5.68359 0.0188234 2.89835 -1.99551 1.46578 -2.7956 0.292377 -4.09414 0.250757 0.262942 0.27013
45 1 5.68805 2.8141 2.96203 -1.24881 -0.566178 -0.265567 0.189093 -4.04226 -0.0220798 0.598762 -0.459006
9 1 11.3975 2.99915 0.207105 -0.178619 0.0638895 -2.60018 0.290748 -4.0575 -0.584847 -0.502185 -0.315545
8 1 9.95796 1.49906 1.59797 -2.75548 4.42155 0.313448 0.159636 -4.08484 0.53217 0.194944 -0.950088
15 1 8.58936 2.85947 0.181769 0.380053 -2.27854 -1.66573 0.279087 -4.15178 -0.144392 0.346714 -0.330085
47 1 8.55792 2.93008 2.95537 0.519016 -1.55366 -3.10149 0.174217 -4.06712 0.207289 0.172174 0.309294
10 1 1.4369 4.34023 1.55955 1.69816 -1.80419 -1.72375 0.245031 -4.04426 0.755063 -0.0605686 -0.622275
17 1 0.0489766 5.73601 0.0122372 -1.00647 -0.361218 -1.86393 0.296227 -4.11445 0.449824 0.100663 1.12154
18 1 1.60933 7.1597 1.43008 2.95989 2.11321 -1.90504 0.176234 -4.10486 -0.358356 0.0374305 0.266745
49 1 0.161508 5.73343 2.8809 2.81419 0.463209 0.58277 0.340007 -4.02901 -0.629512 0.626869 0.125706
51 1 2.97185 5.71918 2.79895 2.57965 2.01417 0.334989 0.202302 -4.06128 -0.524714 0.0736846 0.500736
12 1 4.38024 4.39781 1.39944 -0.282671 0.853569 2.33712 0.380142 -4.06173 -0.252506 -0.671593 0.124383
14 1 7.13528 4.29552 1.44812 2.86621 -2.91367 0.874596 0.125732 -4.187 -0.659659 -0.00324053 0.805259
20 1 4.34327 7.18576 1.41486 1.89153 0.911987 2.48991 0.0942784 -4.16858 -0.282469 -0.24567 0.0807272
21 1 5.74087 5.78855 -0.0431255 -1.45954 1.13957 1.8239 0.229004 -4.07816 -0.337616 -0.207858 0.22151
22 1 7.03262 7.13921 1.48531 1.22559 3.05226 1.43568 0.165939 -4.10582 0.773987 -0.117416 -0.158426
53 1 5.60446 5.72913 2.88715 3.2354 1.97271 -2.13382 0.220209 -4.06264 1.12421 -0.463395 -0.170262
16 1 9.78413 4.50671 1.5755 -1.95655 2.69343 5.30467 4.68937 -4.07598 1.66967 -1.69673 -1.13766
23 1 8.39617 5.66677 0.0548494 -0.840463 -1.76072 2.77559 0.463857 -4.06457 0.464265 0.898192 -0.270335
24 1 9.87049 7.08046 1.43348 -1.33795 0.904949 1.94618 0.309913 -4.06617 0.493591 0.233702 0.135242
55 1 8.47387 5.74265 2.90616 5.01448 -0.637163 -0.777531 0.105328 -3.95538 -0.559499 1.07822 1.03532
1 1 -0.00368616 11.3536 -0.0385271 1.4149 -1.9486 -0.961276 0.40688 -4.05085 0.467758 0.0898547 1.06138
3 1 2.94181 11.362 0.108112 -0.899404 0.693306 2.44615 0.0640672 -4.10586 -0.0947323 0.114452 -0.446131
35 1 2.95266 11.3341 3.00517 -1.85994 -2.10959 -3.41679 0.274963 -4.08989 -0.333017 0.305097 -0.248781
26 1 1.50793 10.0375 1.4516 3.13833 1.28235 -2.38068 0.177439 -4.11952 0.215495 -0.337043 0.34656
27 1 2.97675 8.61478 0.0317391 2.52609 0.458494 -2.10463 0.202612 -4.08476 -0.414666 -0.470256 -0.143661
59 1 2.96648 8.56776 2.99319 1.3296 2.9037 -0.185799 0.39685 -4.09186 -0.303153 -0.378794 -0.948358
28 1 4.23745 9.9487 1.48665 -5.20512 3.84566 3.82445 0.282454 -4.12702 0.585636 0.0233244 0.11782
29 1 5.75416 8.59373 0.0704346 -0.332864 0.808877 0.140082 0.053092 -4.13257 0.137306 0.098425 -0.115365
30 1 7.13972 9.998 1.59342 3.69764 1.39874 0.357193 0.186699 -4.02968 0.0736862 -0.437362 -0.589775
61 1 5.74435 8.50033 2.89806 -2.32874 -2.41341 2.38475 0.0940631 -4.12038 -0.0870782 0.671312 0.225008
33 1 11.3734 11.3691 2.9272 2.68779 0.768231 -1.45802 0.0412603 -4.07982 0.0808666 -0.0503613 -0.00958617
39 1 8.64013 11.33 2.87457 -0.348548 0.235508 3.16858 0.335736 -4.09354 -0.808924 0.127081 0.462082
57 1 11.4043 8.50941 2.83875 0.543066 0.460443 4.18137 0.180087 -4.05923 -0.578755 -0.0754143 -0.132067
32 1 9.95866 9.95119 1.49724 0.0791097 0.5514 0.440786 0.08247 -4.06509 0.61744 0.291317 0.211622
63 1 8.57438 8.59842 2.90456 2.33782 -1.84824 -0.0804789 0.116115 -4.0918 -0.0659347 -0.612132 0.149713
34 1 1.41991 1.56865 4.33682 2.24791 1.00447 1.06635 0.15275 -4.04786 0.661757 0.0766989 -0.0633324
66 1 1.49369 1.65156 7.22289 2.0858 -1.52563 -1.52974 0.439367 -4.08546 -0.0669505 -1.00052 -0.230607
75 1 2.9178 2.8901 5.86124 -1.52045 -0.216477 2.33394 0.278369 -4.02438 0.330431 -0.114123 -1.35169
36 1 4.32828 1.41161 4.37813 -1.02421 0.571781 -2.41092 0.167694 -4.12305 -0.230876 0.969005 -0.121059
38 1 7.06158 1.48258 4.39307 -1.85128 0.0586127 0.934391 0.306054 -4.18132 0.884883 -0.327551 -0.4504
68 1 4.40179 1.4917 7.03426 0.985309 4.91992 -1.4976 0.36576 -4.11714 -0.377802 -0.161631 0.858782
70 1 7.08856 1.50669 7.05993 2.27639 -3.73861 0.777153 0.354871 -4.12858 0.630181 0.0758999 -0.143632
77 1 5.7519 2.99157 5.72011 -2.27819 -1.81489 0.381607 0.295896 -4.09156 -0.469971 -0.493221 -0.017997
73 1 11.2832 2.9668 5.71041 2.48754 5.00469 0.034933 0.215487 -4.14179 0.218349 -0.153905 0.0838685
40 1 9.89853 1.42786 4.34863 -0.822061 -0.497932 -4.77609 0.346506 -4.09107 0.710682 0.688725 -0.429068
72 1 10.0009 1.5193 7.09069 -3.41001 -0.106645 -2.20559 0.119044 -4.05843 0.109735 0.160816 0.452558
79 1 8.64131 2.95275 5.71937 -3.61345 0.285281 1.00552 0.281261 -4.10865 -0.586682 0.109721 0.0099582
42 1 1.46383 4.33732 4.40727 -1.0802 -2.95793 2.53911 0.16566 -4.12419 0.266398 0.449521 -0.131979
50 1 1.45685 7.11881 4.31378 4.98659 -3.60171 0.096709 0.157812 -4.13631 0.433098 -0.3813 0.119777
74 1 1.47983 4.26509 7.07928 0.761064 -0.873997 1.58241 0.37317 -4.12049 0.0513701 0.569288 0.450468
82 1 1.42598 7.17495 7.14985 -1.72065 2.01785 0.0953462 0.208262 -4.06968 0.090741 0.0382021 -0.00758318
83 1 2.92826 5.77012 5.84352 -0.75766 -1.24561 3.65746 0.394725 -4.04947 -0.0157345 -0.605855 -0.930621
44 1 4.28241 4.23338 4.25882 -1.07454 -0.200357 2.22249 0.306567 -4.06734 -0.00603086 0.596654 0.87007
46 1 7.09588 4.30674 4.29961 -2.09328 -1.6418 2.24147 0.0677089 -4.12964 0.307427 0.190385 -0.101907
52 1 4.31108 7.07398 4.24686 0.17844 -1.48878 -1.35251 0.220022 -4.06628 -0.194534 0.187791 0.766044
54 1 7.09149 7.06219 4.31733 0.071109 -1.34231 0.259766 0.11152 -4.07415 0.231211 0.300593 -0.278819
76 1 4.33953 4.25193 7.19985 -0.231456 1.86661 -1.82555 0.138226 -4.10815 -0.306574 0.101126 -0.174445
78 1 7.14277 4.32299 7.08301 -2.39193 -4.68247 3.20366 0.146184 -4.05127 0.495127 -0.314409 0.544549
84 1 4.32596 7.15481 7.09623 0.782852 0.904645 -2.43478 0.10868 -3.99977 0.340589 -0.109255 0.267148
85 1 5.73015 5.58602 5.78438 2.15906 3.56847 -0.0588276 0.361393 -4.1111 -0.655971 1.4286 -0.772055
86 1 7.28122 7.14772 7.06416 4.04008 -2.22221 1.09527 0.613476 -4.05362 -1.00236 -0.1081 1.19146
81 1 11.2731 5.80138 5.82916 0.18527 0.86172 0.368903 0.305969 -4.04864 0.953792 -0.325931 -0.290032
48 1 10.0086 4.46878 4.30168 1.27572 -1.02629 0.154564 0.343244 -4.14596 -0.218741 -0.36556 0.0047594
56 1 10.0234 7.15307 4.37515 0.0656857 -2.37953 -0.847473 0.20505 -4.17068 -0.348925 0.0385701 -0.696097
80 1 9.89853 4.43173 7.12636 1.43899 -1.73461 -4.03529 0.336695 -4.03943 0.328942 -0.325159 0.387018
87 1 8.55347 5.81695 5.68512 -1.43618 3.611 1.72104 0.145566 -4.07677 0.095969 -1.08027 -0.119671
88 1 9.96077 7.18389 7.18865 -2.65296 3.75741 4.41813 0.115316 -4.18909 -0.250062 -0.0943658 0.383366
65 1 0.204032 11.4291 5.77622 0.353734 -0.817286 -2.34616 0.483076 -4.12267 -0.77815 -0.0572406 -0.394041
67 1 2.91793 11.3452 5.78948 -2.5319 -1.79642 1.97527 0.195331 -4.08455 -0.806657 0.0472616 -0.711505
58 1 1.45452 9.82837 4.22945 -5.51143 1.24965 1.47248 0.596175 -4.04587 0.432434 1.07153 0.764019
89 1 0.0993466 8.61106 5.70123 5.67486 -0.484445 0.757989 0.131521 -4.0743 0.0189157 -0.488041 0.389389
90 1 1.46569 10.0143 7.1085 0.82708 -0.421084 -0.916331 0.232513 -3.99238 0.888798 -1.24012 -0.111848
91 1 2.90746 8.44073 5.72098 -0.728111 0.96773 1.75623 0.151616 -4.14572 -0.169954 0.836702 -0.00518699
69 1 5.70477 11.2985 5.66675 -1.41882 1.51723 -1.3535 0.167803 -4.00335 0.191769 -0.0601832 0.633608
60 1 4.37464 9.8941 4.3443 -0.544358 -0.415613 0.113377 0.0587535 -4.1098 -0.136995 0.0189666 0.2152
62 1 7.30432 9.97533 4.39083 0.715459 -1.38691 -3.4476 4.89771 -4.14277 -1.05564 0.0968557 -0.694146
92 1 4.27358 9.91922 7.05684 3.24959 0.385786 0.748097 0.193846 -4.01694 0.749353 0.120088 0.557527
93 1 5.81996 8.44663 5.70308 -2.7257 -3.15176 -3.08569 0.237174 -4.09861 -0.703332 0.305426 0.0197464
94 1 7.20236 9.95937 6.97999 3.03981 0.025616 -1.21636 4.99716 -4.13203 -0.493031 -0.185004 1.33842
71 1 8.6882 11.333 5.77586 -3.28622 -1.38845 3.02305 0.377071 -4.01514 -0.884351 0.437884 0.0409677
64 1 9.99866 9.98457 4.39469 1.44644 0.19959 -3.41359 0.163551 -4.18528 0.409028 -0.105204 -0.711809
95 1 8.57829 8.52028 5.68152 -0.45752 -0.866026 1.63731 0.138363 -4.07963 0.263764 -0.114688 -0.220054
96 1 9.95479 9.90573 7.11921 -0.700395 -0.946058 -0.199775 0.260177 -4.21989 0.246125 -0.0424538 0.231558
98 1 1.43374 1.48824 9.98467 0.777531 1.50689 -1.14551 0.172278 -4.12313 0.118157 0.255258 0.0186785
107 1 2.92625 2.89478 8.57562 4.2386 0.920955 -2.22412 0.0862879 -4.06819 -0.0533656 -0.353111 -0.0698956
13 1 5.75298 2.86845 11.3834 0.574757 -0.884667 0.301046 0.107301 -4.07427 -0.571115 -0.350538 0.152363
100 1 4.32793 1.42341 10.0112 -2.24745 -1.42991 -1.22517 0.108067 -4.04495 0.162875 0.593842 -0.402053
102 1 7.2688 1.55982 10.0085 -2.05669 2.18124 1.49079 0.224083 -4.05995 -0.519185 -0.368862 0.0183576
109 1 5.80485 2.85133 8.5361 1.5475 -1.33871 1.72146 0.178289 -4.16755 -0.331342 0.0807401 0.103765
7 1 8.56472 0.0881988 11.4143 0.358749 -1.7722 -1.73658 0.0488148 -4.19971 -0.0685004 0.0477034 -0.0585653
105 1 11.3295 2.97876 8.52831 -0.425758 0.557645 4.40478 0.199004 -4.09362 -0.396929 0.00390603 0.383915
103 1 8.56249 0.258979 8.45051 -0.121204 -2.62528 -1.8917 0.421169 -4.06258 0.0241572 -0.945696 0.756874
104 1 9.97586 1.54179 9.97594 -3.43716 -2.71634 -1.63288 0.117654 -4.04537 0.18367 0.0774698 -0.247275
111 1 8.5116 2.98049 8.56322 -0.468875 -1.43423 -0.541625 0.124224 -4.16616 0.279016 -0.488823 -0.278944
19 1 2.83304 5.67639 11.2842 1.96258 0.166141 1.2674 0.267599 -4.09424 0.82265 -0.423737 0.807025
106 1 1.47797 4.25588 9.98256 0.0660547 -1.30559 0.836395 0.193099 -4.09179 0.380105 -0.0332038 -0.174351
113 1 0.180821 5.68531 8.61328 -2.31438 5.01348 -3.08542 0.322887 -4.10638 -0.693113 -0.0728706 -0.0799954
114 1 1.49235 7.09851 10.0643 -3.0582 -2.7483 -1.77486 0.27354 -4.08792 -0.178767 0.857801 -0.762614
115 1 2.88128 5.79654 8.53401 1.23258 -1.9749 -3.03496 0.222408 -4.21394 -0.185629 -0.519541 -0.240986
108 1 4.28832 4.28685 9.81495 -6.39623 -0.617957 -3.47211 0.276152 -4.02356 0.635439 0.303792 1.23773
110 1 7.05208 4.23229 10.0394 4.04969 3.1346 0.553569 0.319333 -4.07485 0.362511 0.275085 -0.417397
116 1 4.28126 7.10363 9.92068 -2.03924 -0.896404 0.358878 0.123043 -4.09362 0.16856 0.387134 0.477073
117 1 5.72131 5.72013 8.50052 -0.770502 1.06745 -2.88188 0.0794793 -4.18798 0.569552 0.230516 0.180526
118 1 7.16394 7.23533 9.9312 -3.70729 0.517444 0.629413 0.353518 -4.03439 -0.153829 -0.185312 0.105918
112 1 9.92328 4.30357 10.1758 -1.95065 1.16482 -2.50729 0.60976 -4.04045 0.0779968 -0.273302 -1.14852
119 1 8.49854 5.56508 8.72405 4.019 -1.00668 -3.14267 4.63551 -4.02337 0.256652 0.962081 -0.903391
120 1 10.0111 7.15339 9.94166 -0.215661 1.05318 0.632862 0.221766 -4.10486 -0.682013 0.175901 0.228763
25 1 0.156993 8.57651 11.4277 -4.37702 0.865309 0.0849731 0.218307 -4.10211 -0.628581 -0.00692398 -0.275684
97 1 0.142241 11.2957 8.46767 -2.44751 2.53533 2.34822 0.319394 -4.11752 -0.678667 0.767621 0.718493
99 1 2.92756 11.3121 8.5889 1.74628 -0.256657 3.43156 0.151933 -4.13271 -0.0558853 0.449432 -0.542794
121 1 0.128472 8.56854 8.61629 4.57902 1.77106 3.81505 0.135136 -4.09338 0.197788 -0.1044 -0.250829
122 1 1.5185 9.90238 9.97723 0.939121 0.21107 -1.15226 0.130305 -4.11184 0.00759021 0.612625 0.230532
123 1 2.90308 8.57377 8.55572 3.41796 3.69599 0.207044 0.0421402 -4.21626 -0.110335 -0.282583 -0.163281
5 1 5.82338 11.3979 11.4527 -2.55153 -1.599 -1.71605 0.130171 -4.18135 -0.438953 -0.063857 -0.210818
101 1 5.81351 11.4053 8.58634 -3.45375 2.05889 -0.644653 0.180361 -4.04211 -0.400982 -0.271397 -0.532734
124 1 4.40983 9.95308 9.97119 -0.555074 -1.76143 -0.0522839 0.115833 -4.07456 -0.276895 0.219331 0.13093
125 1 5.62702 8.52446 8.49787 2.41473 -0.854823 3.03309 0.358896 -4.06838 0.925087 0.248026 0.0199737
126 1 7.11871 10.0243 9.95921 -5.00105 -1.13696 -1.84702 0.104713 -4.00679 0.493689 -0.280618 -0.30048
31 1 8.56935 8.68307 11.4241 -1.46816 0.303415 -2.8096 0.317679 -4.08404 -0.369748 -0.990679 -0.318254
127 1 8.5151 8.59056 8.55238 0.0624351 0.212415 0.739405 0.167581 -3.94922 -0.0639632 0.200485 -0.0757232
128 1 9.97836 9.97781 9.89004 0.159234 -2.40586 -1.36242 0.138685 -4.0953 -0.354746 -0.161021 -0.00213605
