ITEM: TIMESTEP
1000
ITEM: NUMBER OF ATOMS
128
ITEM: BOX BOUNDS pp pp pp
9.0638480976585889e-02 1.1373361519023270e+01
8.9698604407402627e-02 1.1374301395592461e+01
8.2650130977027308e-02 1.1381349869022854e+01
ITEM: ATOMS id type x y z vx vy vz c_csym c_peratom fx fy fz
2 1 1.61062 1.61357 1.4909 3.1294 -0.882947 -0.407368 0.279318 -4.08916 -0.805857 -0.569317 -0.275265
11 1 3.02771 2.88797 0.0364148 1.17452 -1.80418 -1.98367 0.305445 -4.1229 -0.2558 -0.342451 0.122939
41 1 0.137648 2.8875 2.86565 1.47449 -0.102927 2.31909 0.229584 -4.10028 -0.759039 0.94616 -0.292206
43 1 3.01189 2.82107 2.9048 -0.130552 -0.485659 1.99021 0.545027 -4.08312 -0.0255388 1.02627 0.395535
4 1 4.37947 1.38841 1.5921 2.27863 3.46378 -0.160424 0.458428 -4.06542 0.169466 0.747143 -0.271006
6 1 7.08168 1.62331 1.43372 3.66454 -2.30072 1.15668 0.459862 -4.04795 0.63502 -0.897905 1.06081
37 1 5.83492 0.0879164 2.93751 0.339367 2.54769 -0.451156 0.255081 -4.12461 -0.59427 -0.150314 0.109851
45 1 5.65609 3.08181 2.95605 1.37259 -1.60657 2.6823 0.597765 -4.04929 0.0749456 -1.07893 -0.0803535
9 1 11.2676 3.02988 0.126983 -3.16795 0.239399 1.77446 0.371377 -4.10277 0.703318 -0.495049 -0.154193
8 1 9.95896 1.5591 1.53841 2.76298 0.193517 1.82657 0.058306 -4.09189 0.197775 -0.366207 -0.255835
15 1 8.54963 2.97747 0.144815 0.980869 -2.61766 -0.853526 0.229789 -4.08404 -0.279885 -0.352602 -0.386142
47 1 8.60131 2.94494 2.83756 0.809402 0.402574 -1.13854 0.167193 -4.11636 -0.862952 -0.118676 0.280761
10 1 1.53645 4.23395 1.50339 -0.54237 -0.190454 -0.130587 0.242326 -4.06971 0.276224 0.313753 -0.0316313
17 1 0.111859 5.77722 0.0662506 -2.60765 0.4123 -0.541598 0.142479 -4.1149 -0.118865 -0.558881 0.437096
18 1 1.55693 7.12048 1.40243 -0.640854 1.91943 -3.29213 0.173468 -4.02493 -0.433524 0.0698768 0.49073
49 1 0.0536381 5.72112 2.8148 -0.301121 -0.256709 -0.453484 0.205033 -4.085 0.277669 0.321714 -0.00886411
51 1 2.82505 5.73508 2.91834 -0.627694 -0.118867 -2.30397 0.182162 -4.04731 0.230827 0.154573 -0.575313
12 1 4.35446 4.34897 1.32864 0.0355408 -1.88193 -0.895964 0.550405 -4.05485 -0.758855 0.284774 1.62963
14 1 7.04683 4.31045 1.49347 3.00836 -0.419697 0.891693 0.207803 -4.17178 0.22483 0.225123 0.308801
20 1 4.36484 7.12053 1.4282 -0.612751 -2.73573 6.16304 0.175827 -4.13127 -0.803879 -0.158683 0.00534342
21 1 5.75392 5.62305 -0.0283011 2.92184 -0.905788 -0.694713 0.369083 -4.13629 0.0944634 0.811909 0.0153185
22 1 7.04782 7.06521 1.57345 -1.25886 -1.81865 -2.08106 0.32994 -4.14117 0.824174 0.87105 -0.757488
53 1 5.63652 5.82525 2.87488 -1.0578 1.78439 -4.84421 0.241537 -4.03821 0.050434 -1.04163 0.882579
16 1 9.915 4.40205 1.42042 1.11523 1.44859 1.91555 0.226669 -4.03165 0.619028 -0.494519 1.11577
23 1 8.45585 5.6663 0.191839 -2.50238 -2.73011 -4.84391 0.396966 -4.03949 0.393064 0.826491 -1.22474
24 1 9.81091 7.23026 1.48195 -1.44927 1.29743 3.81977 0.463073 -4.0967 0.734776 -0.692845 0.316828
55 1 8.53781 5.70745 2.92192 -0.441952 0.795682 -1.99901 0.157324 -4.07371 -0.284134 0.280362 -0.158519
1 1 0.111892 11.4586 0.199092 1.45565 -3.83146 2.6806 0.220221 -4.04622 -0.0312156 -0.0164522 -0.341115
3 1 2.96613 11.4574 0.162613 -1.93594 -3.00541 -0.204623 0.389986 -4.06175 -0.109469 -0.353947 -0.27839
35 1 2.9406 11.3119 2.87013 -0.524282 1.71495 -2.78413 0.12068 -4.1127 -0.447545 0.353142 0.216221
26 1 1.48969 9.93993 1.37262 3.21666 -2.13618 -0.797285 0.313099 -4.12261 0.208348 0.244319 0.857525
27 1 2.84633 8.53681 0.0659047 -1.45109 2.2458 1.4093 0.21783 -3.99072 0.564758 0.0709578 -0.125144
59 1 2.94055 8.54823 2.9017 -0.543717 0.236788 -0.983325 0.116792 -4.06518 -0.356088 -0.438785 -0.076148
28 1 4.38272 9.8454 1.44481 0.0704049 0.65141 3.31022 0.336616 -4.1497 -0.252473 0.521042 0.0946067
29 1 5.75885 8.40311 0.0574906 1.05487 1.54993 -2.40314 0.380636 -4.02321 0.361238 0.670224 -0.123503
30 1 7.0929 9.94632 1.47639 3.07186 -0.313375 -0.504041 0.159124 -4.08011 -0.0922822 -0.154987 -0.186259
61 1 5.71508 8.55928 2.96343 -3.6245 2.55605 0.246806 0.166709 -4.14642 -0.0404109 0.18596 0.0307097
33 1 11.4186 11.4407 2.88394 2.32833 1.33614 4.7043 0.113359 -4.12923 0.204671 -0.317186 -0.262634
39 1 8.56368 11.2901 2.90073 0.128384 -0.712057 2.29168 0.209994 -4.16335 0.406616 0.568527 -0.375518
57 1 11.3738 8.51022 2.83963 -0.213694 5.05028 -4.20119 0.185699 -4.04189 0.865109 -0.390118 0.0366461
32 1 10.0646 9.90927 1.47149 -3.26501 0.554199 0.239084 0.298486 -4.11964 -0.225648 0.221525 0.00180734
63 1 8.49114 8.63254 2.86062 2.02355 2.8453 0.880807 0.311956 -4.13775 0.42274 -0.438183 -0.0877795
34 1 1.39978 1.62297 4.33078 -2.96171 2.99448 1.69495 4.87912 -4.01513 1.38006 -0.840821 0.328071
66 1 1.48729 1.51381 7.17808 0.38401 -2.09746 -1.18175 0.119018 -4.00807 -0.337877 -0.0814017 -0.684364
75 1 3.0304 2.97838 5.76142 0.403412 0.910461 -0.242078 0.454126 -4.14146 -0.89772 -0.253836 0.1292
36 1 4.35463 1.47839 4.36555 1.1432 0.988371 -1.08565 0.175527 -4.00832 -0.00819835 -0.101888 -0.217475
38 1 7.25193 1.52854 4.37122 -0.459762 -0.234267 1.77511 0.350543 -4.00098 -0.985259 0.512515 -0.547298
68 1 4.32069 1.32598 7.09003 0.639189 -0.232956 0.905601 0.739956 -4.08367 0.330917 0.96133 0.148746
70 1 7.08809 1.40216 7.03523 2.83783 -2.63196 -1.06162 0.320498 -4.07291 0.734125 0.784607 0.19951
77 1 5.65262 2.94871 5.76918 -3.58916 0.811628 1.40514 0.238853 -4.12642 0.185222 -0.0120308 -0.215688
73 1 11.3761 2.91036 5.84829 -2.83007 -0.409898 6.1276 0.309313 -4.07201 -0.428412 0.265164 -0.255932
40 1 10.0486 1.54185 4.23797 -1.12828 0.528592 -1.43268 0.208287 -4.08801 -0.528333 -0.262726 0.424956
72 1 9.94414 1.37252 7.22131 0.17584 -0.902501 -2.74929 0.430807 -4.0718 0.0147176 0.323432 -1.10961
79 1 8.71745 2.98831 5.63233 -1.05293 -1.72042 1.17918 4.95387 -4.01185 -0.900622 -0.603565 1.03474
42 1 1.45182 4.35062 4.38623 -2.54826 -0.274225 -0.238983 0.184337 -4.11865 0.116846 -0.542044 -0.39802
50 1 1.47976 7.00402 4.45086 -4.26911 3.27837 -0.476143 0.591544 -4.07347 -0.015638 1.60317 -1.32239
74 1 1.49166 4.48105 7.21188 -0.537534 4.20302 1.39544 0.538703 -4.09702 0.125288 -1.22848 -0.331107
82 1 1.47157 7.10716 7.18213 0.0932411 4.21323 -1.36246 0.0565013 -4.19956 0.127084 -0.0397301 -0.174258
83 1 2.87386 5.70247 5.75896 -0.758903 -1.03565 3.67473 0.111958 -4.08019 0.478082 0.127967 0.367665
44 1 4.22522 4.47991 4.28617 -1.2133 0.977912 -1.33351 0.506757 -4.04441 0.668776 -0.715018 0.351417
46 1 7.06203 4.35794 4.35972 -0.551617 -1.3149 1.84461 0.195379 -4.06295 0.557409 0.0138531 -0.115362
52 1 4.30305 7.13465 4.35573 -1.34143 0.230778 5.98762 0.0696396 -4.12261 -0.177526 0.149763 0.144179
54 1 7.21592 7.19502 4.34427 1.70449 -3.84471 -3.96519 0.204976 -4.09526 -0.413807 -0.710999 0.0569105
76 1 4.32711 4.39459 7.19836 3.35455 0.815952 2.36856 0.168425 -4.06551 -0.0191935 0.00133055 -0.17683
78 1 7.17254 4.34083 7.18168 0.392519 1.82093 1.0883 0.136046 -4.08663 0.105521 -0.541395 0.0810397
84 1 4.26807 7.0934 7.17125 -2.99663 0.564515 1.72028 0.12447 -4.14993 0.173421 0.62897 -0.0291499
85 1 5.73599 5.72344 5.81848 -0.795801 2.52605 2.52462 0.207759 -4.09504 0.116397 0.143225 -0.531489
86 1 7.22387 7.18225 7.06022 2.08562 0.543068 -2.26063 0.373489 -4.05497 -0.456459 -0.22719 0.0884899
81 1 11.3614 5.751 5.75617 -0.609114 3.57462 1.62388 0.151191 -4.04819 -1.11651 -0.744799 0.0893115
48 1 9.91305 4.31149 4.1644 1.25344 -1.74809 -2.17647 0.568412 -4.01051 1.48116 0.494603 0.881756
56 1 10.002 7.20706 4.26929 -0.856323 2.77244 0.688797 0.208741 -4.08621 -0.469035 -0.50073 0.199977
80 1 9.94105 4.31976 7.23133 -2.43826 -2.04695 -0.567486 0.212375 -4.07374 0.496606 -0.241531 -0.0327338
87 1 8.61181 5.63656 5.84539 -3.23699 -3.73846 -1.62966 0.550625 -4.06783 0.0802029 0.74186 -1.04179
88 1 10.0402 7.11543 7.22719 -0.581273 -0.624193 0.608274 0.130487 -4.06995 -0.163073 0.209115 -0.974254
65 1 0.0478531 11.3505 5.65921 0.671565 0.670982 3.33195 0.254405 -4.13411 0.339502 0.286887 0.364282
67 1 2.84447 11.3775 5.75162 2.64845 -3.85008 -0.508734 0.114356 -4.13735 0.0045257 -0.0449959 -0.345053
58 1 1.51945 9.93284 4.24751 0.254272 2.53575 -2.09345 0.127186 -4.04826 -0.407266 -0.0504464 0.304923
89 1 0.0836164 8.56185 5.81611 -1.96893 -1.543 1.05158 0.203214 -4.1197 0.297237 0.124154 -0.279253
90 1 1.43916 10.0485 7.1253 -2.76998 3.07 1.19299 0.137715 -4.08981 0.294073 -0.220604 0.359507
91 1 2.8279 8.59381 5.77771 -0.460378 0.308837 -0.491196 0.21734 -4.08931 0.184052 -0.304457 -0.474471
69 1 5.67804 11.3064 5.72183 0.137115 -1.17873 -1.47699 0.149066 -4.105 0.442047 -0.402211 -0.414143
60 1 4.21705 9.97686 4.34321 -0.17687 3.09619 -2.0093 0.174723 -4.04443 0.543912 -0.0530377 -0.124996
62 1 7.20286 9.94338 4.28305 -0.419871 1.0053 0.630069 0.111303 -4.04722 -0.776289 -0.160377 0.593149
92 1 4.25614 9.85416 7.22531 -0.228375 2.21786 2.06355 0.499719 -4.13444 0.406609 0.816976 -0.106492
93 1 5.69721 8.59055 5.70393 -0.0965722 0.457202 2.34436 0.104024 -4.07659 0.0593307 -0.122088 0.19735
94 1 7.20379 9.95968 7.10478 -1.67646 -1.28489 1.39025 0.118796 -4.10051 -0.150255 -0.0291428 0.121749
71 1 8.57368 11.3133 5.56399 -0.80726 0.0869462 -4.28492 0.453341 -4.09152 0.602895 0.468854 0.942689
64 1 10.1299 9.8843 4.26361 -2.06592 -1.02286 -1.48549 0.63696 -4.10866 -0.960168 0.34167 -0.0189332
95 1 8.60231 8.59084 5.71588 -1.23821 -1.3314 3.87207 0.0871611 -4.11698 0.26554 -0.250176 0.259923
96 1 9.90669 10.0662 7.11339 -1.25671 -2.24703 4.82273 0.38823 -4.0752 0.160701 -0.822406 0.073115
98 1 1.42013 1.54338 10.0325 1.81494 2.07882 -1.239 0.244708 -4.10419 0.312567 -0.278148 -0.0631019
107 1 2.89373 2.87265 8.45576 -0.750534 -1.38282 -1.94752 0.325478 -4.15678 0.373996 0.175329 0.660142
13 1 5.66117 2.86127 11.4418 1.34679 -0.625608 1.05569 0.334035 -4.09546 -0.220088 0.507565 -1.18095
100 1 4.37852 1.38991 9.92177 -0.939751 0.858983 1.15814 0.397908 -4.10272 0.0307872 0.829433 0.428581
102 1 7.03284 1.50586 9.9992 3.43457 -1.43556 0.213095 0.234272 -4.12684 1.01725 -0.103057 -0.331444
109 1 5.63075 2.90276 8.50896 1.70297 -4.87034 -0.587755 0.268797 -4.09512 0.068335 -0.331174 -0.0937096
7 1 8.55427 0.079698 11.4576 0.32484 -0.307259 -1.58671 0.156919 -4.08004 -0.153908 0.322116 -0.0555537
105 1 11.3423 2.86122 8.60561 0.583685 2.16011 -1.5545 0.226395 -4.11418 0.141262 0.250623 -0.357557
103 1 8.52645 0.0202498 8.56186 -1.66417 -2.15732 -0.752933 0.202966 -4.02471 -0.136038 0.401992 0.585392
104 1 9.93606 1.595 10.1127 0.875648 0.983547 -3.22857 0.38269 -4.11185 0.0156992 -0.928889 -0.895775
111 1 8.61539 2.77113 8.49571 1.04125 -1.58069 0.643223 0.628951 -3.96845 -0.839166 0.552398 0.212706
19 1 2.8788 5.64776 11.3367 1.36131 -2.18292 -2.45014 0.188319 -4.10656 0.155735 0.865189 0.339815
106 1 1.53369 4.28371 10.0014 0.183386 -0.743001 0.851902 0.150164 -4.14285 -0.441917 -0.241918 -0.268154
113 1 0.0963587 5.68185 8.63027 -3.95844 -0.464072 2.8344 0.193493 -4.13241 -0.0973542 0.673246 -0.18968
114 1 1.55509 7.08943 9.90124 0.990263 -1.23516 3.18682 0.221797 -4.14855 -0.850735 0.846732 0.629332
115 1 2.90101 5.73994 8.64177 -0.122375 -3.93932 -2.63792 0.162479 -4.05464 0.279779 -0.237779 -1.12992
108 1 4.27343 4.40143 9.9008 -3.66841 -1.21455 -0.507951 0.389423 -4.08078 0.804959 -0.935501 0.305074
110 1 7.12754 4.21607 9.93613 -0.288024 4.64581 2.05439 0.279426 -4.10888 0.339165 -0.0342104 -0.148949
116 1 4.26893 7.19728 9.9537 2.26071 -0.123968 -5.35263 0.310294 -4.17655 0.167632 -0.200443 0.0314802
117 1 5.74962 5.75344 8.57881 3.07369 1.77428 -3.04144 0.116425 -4.13005 0.405181 0.332993 -0.18467
118 1 7.25947 7.08178 10.0384 1.75202 2.37532 -2.07763 0.257358 -3.98599 -0.500155 -0.0593741 -0.269327
112 1 9.90056 4.33006 9.8372 1.03716 -1.7366 -2.25221 0.576416 -4.11371 -0.211243 -0.0526294 1.02289
119 1 8.60475 5.83668 8.5069 1.82085 -4.09175 -2.46264 4.69366 -4.1137 -0.754481 -0.781004 0.690565
120 1 10.0762 7.16399 10.0226 -0.730075 0.103936 -3.40427 0.336536 -3.98614 -1.3101 -0.955384 -0.501293
25 1 0.108561 8.47922 11.3196 0.396106 0.406672 -4.54092 0.274057 -4.09895 0.510567 0.80663 0.689837
97 1 0.0812368 11.3523 8.54524 0.906893 0.668426 1.24419 0.218469 -4.07067 0.239612 0.624417 0.292778
99 1 2.90702 11.5277 8.56596 4.19915 -0.641614 2.0066 0.520152 -4.03826 -0.88741 -1.3156 -0.0414055
121 1 0.015648 8.57964 8.53915 1.491 -0.105355 0.737707 0.254789 -4.14664 0.768609 0.258999 0.373462
122 1 1.54228 10.0253 10.0671 0.30657 0.462776 0.864183 0.253333 -4.1439 -0.0997385 -0.0502401 -0.713037
123 1 2.7896 8.52745 8.50439 -0.406615 -0.736721 -0.158782 0.318438 -3.9375 0.346148 0.478531 0.41936
5 1 5.75197 11.3998 11.4342 -1.62808 4.07382 -2.10461 0.208864 -4.06711 -0.0831522 -0.29811 -0.229833
101 1 5.76924 11.3757 8.46797 1.05373 1.96947 -4.15686 0.269921 -4.05436 -0.0634655 -0.248356 0.31191
124 1 4.3352 10.0368 9.92865 0.516902 -2.99707 -1.15842 0.197009 -4.17421 -0.068173 -0.938655 0.321212
125 1 5.92207 8.49834 8.58828 -0.64122 0.363554 1.45204 0.706094 -4.03081 -0.76146 -0.0887901 -0.270774
126 1 7.08965 9.98256 10.027 -2.06764 2.94309 -1.04848 0.315535 -4.05134 0.172106 -0.0198664 -0.38354
31 1 8.52827 8.57069 11.3861 1.69832 -2.27825 2.29421 0.152853 -4.12135 -0.013668 0.293714 -0.435051
127 1 8.64724 8.43066 8.6077 -0.837022 -5.75375 0.94121 4.81921 -4.16651 -0.440155 1.42597 0.108754
128 1 10.0697 10.0748 9.99316 1.75484 2.45767 2.16641 0.525415 -4.04611 -0.779363 -0.725293 0.417408
