ITEM: TIMESTEP
8500
ITEM: NUMBER OF ATOMS
128
ITEM: BOX BOUNDS pp pp pp
8.6314412813475627e-02 1.1377685587186239e+01
9.1591649121260943e-02 1.1372408350878530e+01
8.2649707275791379e-02 1.1381350292724090e+01
ITEM: ATOMS id type x y z vx vy vz c_csym c_peratom fx fy fz
2 1 1.46891 1.48796 1.59065 0.283643 0.370535 -0.042103 0.143176 -4.17947 0.0670626 -0.188378 -0.833686
11 1 2.86081 2.92626 0.144645 -0.234284 2.57364 -1.12661 0.0709691 -4.06657 -0.387601 -0.421742 0.324295
41 1 0.139898 2.82518 2.99541 -1.47838 -2.60005 -0.690037 0.279039 -4.14988 -0.706238 0.63846 -0.209688
43 1 2.82751 2.9058 2.88511 0.228249 -0.879822 3.95669 0.145891 -4.15589 0.27754 0.293565 0.338764
4 1 4.30007 1.54615 1.47652 0.0249651 1.39434 -0.416018 0.111588 -4.18597 0.0730893 -0.374504 0.0193631
6 1 7.16171 1.55034 1.45162 -3.13342 0.14353 -2.79691 0.149536 -4.12857 -0.297708 -0.691045 -0.110978
37 1 5.79095 0.153086 2.87894 2.60089 -2.83578 2.72908 0.157652 -4.00789 -0.311347 -0.491846 -0.202174
45 1 5.71153 2.97802 2.85274 3.43088 -0.23563 -1.88941 0.12716 -4.0711 0.765138 -0.843318 0.287134
9 1 11.4126 2.84922 0.185284 0.32993 0.471967 -1.51782 0.197587 -3.99034 -0.285001 0.452523 -0.567227
8 1 9.99277 1.43047 1.49162 2.76174 3.64749 -2.24864 0.151424 -4.05966 0.761819 0.856523 -1.2668
15 1 8.52375 2.93822 -0.0244863 0.0326979 -0.088094 2.20505 0.254359 -4.13892 0.264816 -0.136785 0.531805
47 1 8.58026 2.82216 2.77392 0.418785 2.26661 3.26049 0.365852 -4.06233 0.179595 0.666126 0.789968
10 1 1.41828 4.30249 1.52062 1.72512 0.560398 -0.0214513 0.145198 -4.0733 0.15835 0.119447 -0.267792
17 1 0.0900865 5.87218 0.0741367 0.209592 -0.672284 2.05631 0.351292 -4.10742 0.305101 -0.863378 0.224033
18 1 1.43528 7.23162 1.43206 1.77175 1.41718 2.85198 0.266352 -4.01415 0.656653 -0.284033 0.635906
49 1 0.140739 5.79527 2.95199 1.66708 -2.85764 -1.36256 0.218838 -4.08808 -0.0188945 -0.216052 -0.155053
51 1 2.85328 5.73136 2.86898 -1.24086 1.33644 4.51666 0.152273 -4.13689 0.451969 0.106948 0.105074
12 1 4.34629 4.22454 1.52454 3.58976 -1.49849 -0.749515 0.217992 -4.102 -0.835695 1.04604 -0.65394
14 1 7.15265 4.33483 1.47363 -3.19984 -1.1856 -1.65047 0.0496494 -4.15478 0.474465 -0.335002 0.524452
20 1 4.37319 7.18885 1.50712 2.15508 -2.49533 -2.38824 0.187693 -4.05974 -0.0365634 -0.520178 -0.0301853
21 1 5.78578 5.73232 0.238144 0.204166 4.116 -0.753809 0.497452 -3.99928 -0.702273 0.311394 -1.09963
22 1 7.15108 7.2209 1.57149 -3.32076 1.34483 -3.32318 0.266097 -4.06234 0.101012 -0.377159 -0.71343
53 1 5.7164 5.65718 3.00454 -1.33053 1.07917 -4.33242 0.329313 -4.11712 0.460711 0.561886 -0.538118
16 1 10.0128 4.32538 1.44045 -3.5932 3.27461 3.38651 0.125821 -4.11761 0.00904228 -0.00342954 0.559015
23 1 8.54415 5.63497 0.0392255 -0.311496 -3.17138 0.787798 0.266324 -4.07281 -0.208336 0.940177 0.123307
24 1 9.85993 7.079 1.52942 4.31384 -0.239625 -0.481098 0.46161 -4.08015 0.404459 0.874713 -0.433408
55 1 8.5786 5.73885 2.88873 -3.72806 2.8372 -0.757838 0.104855 -3.9731 -0.663681 -0.0812697 0.795313
1 1 0.203091 11.2661 0.0389243 2.22204 1.43324 0.0597942 0.543374 -4.05739 -0.794541 0.685876 0.524952
3 1 2.79638 11.2808 0.0973249 -2.42902 -0.882021 -0.130827 0.310736 -4.07103 1.29904 0.856426 -1.03869
35 1 2.90675 11.4468 2.91438 1.71514 -3.581 3.53404 0.110509 -4.07409 0.480694 -0.251651 -0.0623068
26 1 1.56174 10.0747 1.56099 1.70917 2.7195 0.384893 5.14578 -4.05969 -0.984928 -1.47713 0.499409
27 1 2.96865 8.50566 0.136237 1.10255 3.13695 1.27667 0.235821 -4.16661 -0.521339 0.474413 0.0568657
59 1 2.97719 8.54583 2.9097 -1.38278 2.24202 -0.848018 0.178906 -4.06521 -0.79579 -0.507933 0.360897
28 1 4.18446 9.94718 1.55384 -0.802959 2.19707 3.05266 0.459246 -4.04317 1.12273 0.63164 -0.329428
29 1 5.7188 8.64968 -0.0111969 1.69067 -2.80009 -0.27603 0.387014 -4.14096 0.317399 -0.523742 0.783854
30 1 7.24687 9.96872 1.48597 -1.36251 1.14076 0.751742 0.309407 -4.09036 -1.04252 -0.13082 0.254379
61 1 5.72497 8.55847 2.872 -0.269119 3.37831 0.910512 0.159578 -4.08507 -0.132858 0.78774 0.00709876
33 1 11.3501 11.4392 2.9907 -0.0279346 -6.11495 -4.1228 0.201708 -4.14405 -0.271662 -0.666503 -0.764076
39 1 8.63789 11.4647 2.81047 -1.03699 0.652927 3.91531 0.312867 -4.09299 -1.24517 -0.765176 1.23518
57 1 11.3808 8.64527 2.84137 -0.952178 -1.41624 -0.70714 0.206789 -4.03421 0.17961 -0.665084 0.53179
32 1 9.90856 10.004 1.49943 -1.54481 1.06161 0.958362 0.119839 -4.11084 0.774695 -0.420786 -0.442566
63 1 8.54015 8.66471 2.90239 -1.40365 -2.65167 -0.144079 0.151722 -4.04409 0.480819 -0.790552 0.202548
34 1 1.5016 1.41467 4.30695 -1.10727 1.31517 2.8454 0.197931 -4.12378 0.40559 0.674285 0.931096
66 1 1.47203 1.53893 7.12849 1.26283 1.01042 -1.87285 0.196416 -4.03187 0.275147 -0.201229 -0.219788
75 1 2.98243 2.86619 5.72616 -1.42985 -1.17927 2.57964 0.175631 -4.10301 -0.544732 0.128099 -0.0263705
36 1 4.33146 1.52529 4.2685 -1.04011 -4.04566 -2.86522 0.152484 -4.14003 0.320862 0.0699609 0.230967
38 1 7.05865 1.57958 4.28742 -1.36861 -4.2049 -0.339594 0.333944 -4.06283 0.37868 -0.17105 -0.0420806
68 1 4.28675 1.45571 7.21874 1.43504 0.966682 -3.4719 0.0994709 -4.04911 0.00363421 0.284286 -0.0676731
70 1 7.05395 1.48821 7.25184 0.926048 2.54504 2.59136 0.348753 -4.01634 0.377102 0.150419 -0.496899
77 1 5.76801 2.94478 5.78248 1.39854 2.81902 0.471178 0.155668 -4.19058 -0.348097 -0.398621 0.0425513
73 1 11.3223 2.89444 5.66004 -1.96463 -2.40168 2.48455 0.152593 -4.10681 0.269848 -0.125138 0.233031
40 1 9.90699 1.49259 4.31993 1.15277 -2.94699 0.628133 0.196062 -4.10529 0.199595 0.14764 0.0512166
72 1 10.0155 1.52158 7.20008 -1.88664 -2.64625 1.58902 0.274716 -4.05753 0.6467 0.0333344 -0.218927
79 1 8.64222 2.83121 5.8451 -2.07541 1.86764 1.01228 4.14477 -4.08928 -1.02776 0.928452 -0.162588
42 1 1.49187 4.27474 4.33152 -2.36724 2.46214 1.98526 0.14086 -4.06933 -0.0414621 0.19064 0.188125
50 1 1.60275 7.28068 4.40995 -0.472955 4.01645 -3.2105 0.567501 -4.07308 -0.670691 -0.957328 -0.872104
74 1 1.41302 4.34009 7.09564 -1.15234 1.01331 -1.56613 0.217016 -4.1086 0.371793 -0.534354 0.101868
82 1 1.49694 7.07994 7.04888 2.22034 -3.72783 1.78791 0.178557 -4.17235 0.553827 0.197182 0.169734
83 1 2.99022 5.5994 5.68387 -1.18126 -2.3777 -0.731106 0.427984 -4.09872 -0.229939 0.533795 -0.0142604
44 1 4.35039 4.22929 4.27691 -0.539808 -1.69158 2.35419 0.14304 -4.06318 -0.408678 0.264132 0.156467
46 1 7.19927 4.24014 4.29159 -3.44878 -0.27518 -2.82324 0.287386 -4.02849 0.0783117 0.127125 0.289232
52 1 4.3685 7.13214 4.27615 0.287917 2.1769 3.51271 0.110629 -4.06443 -0.0531544 0.0472345 0.442734
54 1 7.12935 7.3417 4.28501 1.40257 0.193386 -1.8566 0.583832 -4.0528 0.0588068 -1.37053 0.0447872
76 1 4.31662 4.20812 7.15046 2.93796 -4.05977 -1.16574 0.074608 -4.04145 -0.24957 0.362164 0.0513684
78 1 7.09961 4.33313 7.28904 -0.466391 -3.1228 -0.219064 0.299044 -4.02581 0.574905 -0.160259 -0.59726
84 1 4.22784 7.2119 7.1147 -1.66037 0.479827 -1.43255 0.377054 -4.08665 0.594106 -0.614402 -0.12622
85 1 5.75869 5.62142 5.77869 0.340179 -1.15167 -0.128726 0.275254 -4.10745 -0.208832 0.749999 -0.390973
86 1 7.12886 7.12194 7.13501 -0.432068 -2.29054 0.934855 0.166979 -4.09479 -0.520132 0.674099 0.618088
81 1 11.3769 5.78103 5.66042 0.91406 1.72755 3.73806 0.182685 -4.06757 0.0724297 -0.459401 0.205647
48 1 9.90361 4.29783 4.31015 0.795575 -3.29345 -3.72237 0.215773 -4.06593 0.166597 0.227423 -0.0779498
56 1 10.0683 7.17283 4.3414 2.4813 3.33004 -0.763436 0.215909 -4.08594 -1.12687 0.220797 -0.689641
80 1 10.0513 4.40166 7.13327 -1.36763 1.6644 1.91868 0.25195 -4.10081 -0.459115 -0.072912 -0.069295
87 1 8.47128 5.82938 5.78992 -0.845439 0.993191 -1.98597 0.391395 -4.02815 0.593301 -0.965142 -0.991475
88 1 9.93437 7.16349 7.08868 -0.0133057 1.60341 -3.07284 0.118973 -4.12705 0.714452 -0.28679 -0.359967
65 1 0.0522757 11.343 5.71688 -0.848563 -2.90955 -4.21817 0.103845 -4.08011 0.0225629 0.200015 0.160507
67 1 3.04672 11.3633 5.73745 -0.692415 2.74105 -2.8117 0.381482 -4.09403 -1.04653 0.372048 0.436179
58 1 1.58141 10.0439 4.31692 2.66489 -2.11852 1.4741 0.103858 -4.20277 -0.348239 -0.525702 -0.123555
89 1 0.133556 8.57576 5.73132 -1.09872 1.32416 1.1858 0.135208 -4.09251 -0.532673 0.196691 -0.139571
90 1 1.59307 9.85876 7.03811 2.41674 1.45368 -0.045885 0.363096 -4.09283 -0.410816 0.9125 0.774893
91 1 2.98462 8.61109 5.67913 3.18748 -0.690828 2.15015 0.216709 -4.02136 0.327447 -0.273042 -0.00446912
69 1 5.64077 11.3532 5.87598 -0.378704 0.987727 0.855969 4.94557 -4.14604 0.705566 0.113871 -0.664249
60 1 4.30535 10.0168 4.30246 -1.20498 -2.59903 0.954887 0.131102 -4.16768 0.383111 -0.275618 -0.374199
62 1 7.19738 10.0934 4.27032 2.41967 -0.0394416 -0.319321 0.242215 -4.09334 -0.321612 -0.370104 0.190021
92 1 4.22772 9.9057 7.2031 -0.924835 3.60441 0.215866 0.260135 -4.11014 0.49394 0.0589545 0.0216417
93 1 5.7228 8.68801 5.73193 -2.78451 5.38438 1.28703 0.230215 -4.08212 0.115573 -0.619722 -0.12486
94 1 7.18202 9.89006 7.205 1.5321 -2.074 -4.5502 0.482824 -4.08222 0.29117 0.593044 -0.136622
71 1 8.42858 11.5613 5.72195 0.0398506 2.36436 0.649877 4.48951 -4.02284 0.543984 -1.16574 0.200115
64 1 9.95924 9.92999 4.25105 2.3166 -2.03795 1.75857 0.268174 -4.07828 -0.0313804 0.659502 0.710633
95 1 8.57559 8.5463 5.66903 -0.12305 -0.614182 0.679851 0.190606 -4.06657 0.0303686 0.210092 0.509071
96 1 9.91757 10.0328 7.15495 -0.0463363 -2.68339 2.24584 0.319253 -4.07873 0.0768233 0.124142 -0.395287
98 1 1.49908 1.57792 9.98845 -1.22071 -3.79493 0.491805 0.335692 -4.12155 -0.130505 -0.368279 0.102419
107 1 2.89031 2.87514 8.56017 -0.665894 -0.0970873 2.75105 0.0636799 -4.12216 -0.141758 0.298592 -0.0263817
13 1 5.81052 2.92349 11.4003 0.73884 2.61257 -1.74162 0.22036 -4.07682 -0.252238 0.247315 -0.0956059
100 1 4.27214 1.53225 10.1098 2.87795 -1.75179 -0.632639 0.380257 -4.08201 0.349653 -0.23384 -0.586587
102 1 7.10614 1.45244 10.0496 2.37422 3.55813 0.269219 0.295724 -4.03767 -0.182683 0.0630633 -0.64314
109 1 5.6704 2.85874 8.53526 -0.366427 0.0224776 1.87579 0.246622 -4.11957 0.0497728 0.111453 0.750474
7 1 8.54153 -0.0154673 11.367 4.26038 0.915434 -0.96072 0.323734 -4.09749 0.199719 1.11847 -0.414073
105 1 11.3277 2.93283 8.56753 -0.848481 -0.714186 0.740569 0.103717 -4.07664 0.287902 -0.0301606 0.0204904
103 1 8.60053 0.316266 8.55294 3.72786 -0.416744 -2.21878 0.967103 -4.00513 -0.3472 -1.52628 0.51693
104 1 10.067 1.50694 10.0217 -2.34776 2.04061 0.394249 0.218537 -4.07136 -0.222017 -0.417494 -0.226794
111 1 8.57312 2.97684 8.6197 7.03688 0.382487 -0.858541 0.0760844 -4.16766 0.0307411 -0.402534 -0.342006
19 1 2.87439 5.70449 11.3773 -2.73256 0.827633 -0.537317 0.0731198 -4.09767 0.0504371 0.184351 0.524334
106 1 1.48632 4.29329 10.0248 0.88478 0.623358 -0.997844 0.086866 -4.15515 -0.295371 0.0656189 -0.142207
113 1 0.11362 5.78418 8.62655 -2.14491 0.139865 -1.54074 0.187622 -4.12273 -0.0960333 0.140192 -0.410964
114 1 1.57729 7.19316 9.94957 0.952031 0.990063 -0.836932 0.285205 -4.10351 -0.661628 -0.699934 0.314709
115 1 2.84749 5.62878 8.51637 -0.796355 -0.674216 0.600324 0.196986 -4.10742 0.308294 0.214384 0.184978
108 1 4.23317 4.20798 10.0848 1.89617 0.841233 -0.386423 0.373374 -4.0989 0.873207 0.757594 -0.484864
110 1 7.1295 4.34078 9.90806 0.974689 -1.09607 1.44616 0.253889 -4.09712 -0.496967 0.139317 0.185984
116 1 4.26168 7.12752 9.98484 -0.242038 -2.31719 -3.37462 0.0938849 -4.1067 0.309917 -0.313128 0.0210832
117 1 5.53209 5.68187 8.54768 -0.0322823 -1.34238 -1.35142 0.468938 -4.05976 0.607742 0.0119444 -0.0496358
118 1 7.06415 7.11082 9.87498 1.34553 2.42022 -2.5078 0.397452 -4.06394 0.425643 -0.0950207 0.459419
112 1 9.98985 4.37416 9.99388 0.501656 -2.45918 1.41364 0.0821982 -4.11684 0.382088 -0.40641 -0.0376454
119 1 8.61453 5.81508 8.51989 -2.93467 -5.10457 1.20775 0.204212 -4.13909 -0.18074 -0.492338 0.299321
120 1 10.0112 7.14137 9.98561 0.460856 0.17139 2.09307 0.152361 -4.07168 -0.542996 0.288937 -0.177203
25 1 0.0235132 8.52617 11.397 0.601906 -2.90626 -1.62233 0.257133 -4.09412 -0.0514948 0.387899 0.0381733
97 1 0.265112 11.3043 8.50558 -3.37886 1.794 2.41716 0.60709 -4.08417 -0.498391 0.255981 0.30041
99 1 2.91009 11.3269 8.65789 -2.07525 -2.50334 -1.59352 0.185083 -4.13083 -0.402064 0.168591 -0.418889
121 1 0.0898718 8.49875 8.44352 -3.77787 1.02641 1.64924 0.208564 -4.15639 0.0987634 0.0972057 0.288575
122 1 1.42041 9.78977 10.0143 -3.51876 -0.948701 1.28732 0.48566 -4.05366 0.83868 0.281846 -0.528615
123 1 2.88638 8.49454 8.57296 1.15235 2.21182 4.96961 0.0893454 -4.09327 0.137738 0.344711 -0.50324
5 1 5.68374 11.2378 11.4293 0.363772 0.272496 -3.85861 4.51854 -4.0626 0.27786 0.336557 -0.400506
101 1 5.63977 11.2623 8.55636 -1.42006 0.259819 -2.36065 0.237961 -4.12144 0.232827 0.500645 0.471788
124 1 4.27183 9.84719 9.91114 -0.661667 -0.661617 2.36692 0.187245 -4.03004 -0.0998724 0.502961 0.255515
125 1 5.71316 8.47319 8.51437 1.57073 -0.777973 -0.674555 0.0935172 -4.10999 -0.29892 0.362013 0.201859
126 1 7.26053 9.90048 9.85177 -0.36157 0.717961 -2.41233 0.614818 -4.04519 -1.05769 1.14425 -0.872293
31 1 8.48312 8.62711 11.2412 -2.08955 1.40791 0.800399 0.502354 -4.02109 1.22241 -1.4799 1.45535
127 1 8.71494 8.52081 8.51544 -1.03096 0.766527 -3.48887 0.423974 -4.06637 -1.0158 -0.0433167 0.472472
128 1 10.0512 9.97794 9.85886 0.310848 2.11096 -1.3536 0.258281 -4.12398 -0.598653 0.303493 0.126453
