ITEM: TIMESTEP
19500
ITEM: NUMBER OF ATOMS
128
ITEM: BOX BOUNDS pp pp pp
8.2368670127605625e-02 1.1381631329872079e+01
8.5318177034044318e-02 1.1378681822965746e+01
8.2649085847311995e-02 1.1381350914152570e+01
ITEM: ATOMS id type x y z vx vy vz c_csym c_peratom fx fy fz
2 1 1.43531 1.55855 1.4305 -3.08274 0.579755 -0.70738 0.211097 -4.09005 0.612357 -1.21525 1.08415
11 1 2.85636 2.85914 0.140392 -0.788674 -0.101198 -0.791467 0.348485 -4.05176 0.567086 0.572681 -0.473909
41 1 0.207872 2.92777 2.92877 1.28892 0.549813 1.03135 0.36539 -4.09398 -0.814832 -0.441899 0.258121
43 1 2.96039 2.96546 2.90304 -1.21676 -0.84555 0.910314 0.0997399 -4.20368 -0.218037 -0.00356079 0.0911632
4 1 4.34307 1.57681 1.39637 -2.18934 0.810991 4.02572 0.249718 -4.05605 0.142761 -0.814857 0.544864
6 1 7.17757 1.5453 1.53532 -1.63094 1.45602 0.281809 0.217267 -4.16904 -0.353679 0.000654902 0.00413906
37 1 5.69743 0.0930006 2.89604 2.29189 1.4773 0.550107 0.188397 -4.01024 0.0527227 -0.327057 0.210614
45 1 5.67464 3.07861 2.84771 1.32877 3.09989 -0.604097 0.488763 -4.11801 0.29348 -0.89244 0.354944
9 1 11.3919 2.92777 0.18352 -2.13607 -3.72034 -1.49203 0.405148 -4.10228 -1.2175 0.248561 -1.49367
8 1 9.90628 1.5413 1.55339 0.157755 -1.22545 0.932739 0.199317 -4.0894 0.364749 0.0818493 -0.0622729
15 1 8.55167 2.9351 -0.0287316 4.74402 0.454665 -0.928948 0.242326 -4.14552 0.0293009 -0.259726 0.121913
47 1 8.46911 3.01929 2.91873 0.803535 2.17617 -3.6393 0.254988 -3.98457 1.17467 0.0151338 -0.582038
10 1 1.44158 4.31429 1.50812 -1.42058 1.40568 -0.539256 0.12803 -4.08183 0.508946 0.379452 0.219911
17 1 0.00520089 5.69951 0.0876505 2.42498 -3.96958 4.0557 0.124273 -4.12885 0.366695 -0.340519 -0.73407
18 1 1.51087 7.05599 1.54912 -0.66421 -0.428907 4.14089 0.139515 -4.04457 -0.2882 0.432364 -0.461475
49 1 0.0548925 5.75511 2.89849 -0.269543 0.905101 -1.73652 0.0840476 -4.08008 0.264056 -0.387642 -0.249522
51 1 2.98483 5.68354 3.00058 0.429144 2.35179 0.13004 0.367754 -4.16816 -0.224395 -0.132821 -0.771844
12 1 4.35289 4.28064 1.3673 2.31496 -1.87526 1.73297 0.458388 -4.0408 -0.325347 0.0843592 0.0129811
14 1 7.20482 4.37977 1.41769 -5.64534 1.01308 -3.29282 0.314661 -4.14763 -0.523638 -0.117756 0.173384
20 1 4.25418 7.11067 1.35761 -0.432544 -1.28964 1.33532 4.6961 -3.98473 -0.630699 0.359553 1.79586
21 1 5.64074 5.78345 0.0887466 1.71331 -1.14193 0.508991 0.277972 -4.04511 1.2516 -0.318248 0.228262
22 1 7.24733 7.13002 1.45882 2.30089 -5.14676 -3.26407 0.49298 -4.1117 -0.535455 -0.102196 0.0401586
53 1 5.56591 5.74989 2.82453 3.28104 -0.351513 -2.13927 0.5794 -4.1326 1.02933 0.321123 0.296684
16 1 9.96721 4.30193 1.56886 0.86254 -1.71841 1.28411 0.215044 -4.10019 -0.414877 0.292466 0.0022136
23 1 8.62724 5.73023 0.0758314 0.715436 1.10714 3.9782 0.214239 -4.04076 -0.0832964 -0.233516 -0.111718
24 1 9.90566 7.17379 1.42003 -0.458 -0.39747 1.05918 0.231159 -4.15603 0.62116 -0.261746 1.12672
55 1 8.44009 5.72931 3.02261 -2.1047 0.0680568 1.80844 0.621789 -4.07116 0.455196 0.234941 -0.650646
1 1 0.0626559 11.4546 -0.025834 0.367572 2.03 -0.628941 0.247945 -4.08061 -0.225498 -0.125402 0.450004
3 1 2.82802 11.3821 0.0546751 -1.86394 1.31515 -1.97834 0.11841 -4.0921 0.470815 0.236449 0.102484
35 1 2.89729 11.3845 2.84903 2.02936 -2.05653 -0.288928 0.119187 -4.05841 0.121574 0.305252 0.0430578
26 1 1.3564 10.0309 1.45093 0.833602 2.14028 2.66984 0.285087 -4.05701 0.697608 -0.302115 0.357252
27 1 2.88686 8.55668 0.0577241 -1.83236 -2.76114 3.03531 0.0937602 -4.1257 -0.22048 0.116565 0.270162
59 1 2.84964 8.52122 2.91616 -2.19537 -0.622944 0.226233 0.131444 -4.07191 0.235341 0.0453726 -0.598979
28 1 4.2135 10.0213 1.40945 3.70168 2.59094 -2.83879 0.28261 -4.00622 0.283527 -0.203016 0.519765
29 1 5.66715 8.51819 0.200083 -0.00300718 2.11095 2.31074 0.419319 -4.07159 0.836913 0.721863 -0.151453
30 1 7.2008 10.0723 1.59288 2.31389 0.0864129 2.12194 0.310508 -4.03584 -0.333797 -0.697906 -1.23264
61 1 5.75256 8.55958 2.92176 -1.11212 3.0046 -0.960281 0.209408 -4.08429 -0.745305 0.286625 -0.361222
33 1 11.308 11.4443 2.98579 2.36352 2.04643 -1.96638 0.281734 -4.09487 0.707613 -0.218345 -0.365036
39 1 8.57733 11.3679 2.92603 -3.52609 -1.82497 -0.0328619 0.110499 -4.06481 0.373785 0.0857109 0.359301
57 1 11.3874 8.5728 2.94578 -1.95937 -3.3148 -1.46503 0.167043 -4.08135 0.358981 -0.139917 -0.24007
32 1 10.0265 9.98543 1.48296 -2.68136 -0.365401 -1.25371 0.122037 -4.14783 -0.522105 0.120541 -0.159596
63 1 8.52049 8.57089 2.9227 -2.98303 0.112874 -1.739 0.123205 -4.16732 0.261037 0.0480267 0.111197
34 1 1.58273 1.50406 4.28764 -0.575284 1.60221 1.38889 0.219911 -4.0549 -0.236145 -0.107673 0.241626
66 1 1.59641 1.53707 7.25041 1.32271 -0.0700865 -1.77568 0.471459 -4.10369 -0.95658 0.1884 -0.124188
75 1 2.92151 2.973 5.6977 3.55694 2.67741 -0.866898 0.214852 -4.09477 0.337253 -0.610785 -0.19346
36 1 4.37403 1.48009 4.3048 -1.45028 -0.476456 3.64925 0.203612 -4.03763 -0.349662 0.166795 0.17782
38 1 7.2079 1.66592 4.24427 -2.09755 1.38333 0.84547 4.45165 -4.079 -1.23369 -1.74499 0.573192
68 1 4.36902 1.49357 7.1446 1.91833 -3.38361 2.22935 0.0813264 -4.11096 -0.401329 0.23428 -0.138931
70 1 7.067 1.46583 7.02665 -4.31509 -1.2614 2.38077 0.327125 -4.10478 0.313179 -0.111414 -0.295663
77 1 5.76813 2.95284 5.71534 -0.78302 2.86759 0.244543 0.0977724 -4.07816 -0.481282 -0.501283 0.296333
73 1 11.3833 2.80191 5.64402 0.316469 -1.26545 -1.50429 0.301629 -4.07074 0.671684 0.434095 0.657424
40 1 9.94831 1.47684 4.371 2.99346 -0.26879 -2.08613 0.161021 -4.13333 -0.353881 0.566108 -0.876837
72 1 10.0176 1.44869 7.0608 -0.915567 1.50534 -0.131254 0.276699 -4.13329 -0.444193 0.144365 0.460169
79 1 8.53989 2.93913 5.6806 1.16456 1.28951 2.7802 0.114246 -4.08751 -0.350443 -0.364552 -0.110602
42 1 1.46694 4.3372 4.38425 -0.228471 2.00509 -2.59235 0.153494 -4.09487 -0.0680759 0.100641 -0.276252
50 1 1.51739 7.04977 4.30295 -0.885414 -0.0480027 -2.58875 0.152568 -4.12994 -0.143974 0.299539 0.0901826
74 1 1.57932 4.2382 7.16732 -1.51099 -4.65752 1.00133 0.240116 -4.10736 -0.775192 -0.246667 0.038068
82 1 1.50491 7.16689 7.12798 -3.78974 -2.21306 -4.55108 0.198559 -4.0651 0.00279297 -0.427511 0.505961
83 1 2.86497 5.66679 5.76201 3.09018 3.71694 -1.16311 0.178528 -4.14955 0.129707 0.432922 0.22776
44 1 4.38995 4.37234 4.43223 1.31648 -0.575123 4.11076 0.393199 -4.07929 -0.372677 -0.0912288 -0.21605
46 1 7.0461 4.31598 4.31133 -1.82651 -1.41527 2.27128 0.24599 -4.08559 0.762509 0.531072 -0.0590716
52 1 4.22585 7.1589 4.49405 -1.33482 -3.48073 3.36175 0.587054 -4.08731 0.947451 -0.223107 -0.48176
54 1 7.04168 7.19566 4.32459 3.15127 4.37392 2.22857 0.304937 -3.98842 0.401807 -0.342069 0.160931
76 1 4.32644 4.372 7.09559 -5.14678 1.63255 0.183153 0.209918 -4.144 0.330816 -0.581942 0.412687
78 1 7.18238 4.24528 7.1799 1.2907 -0.777237 0.571352 0.164709 -4.02785 -0.53577 0.889998 -0.899984
84 1 4.41342 7.1378 7.14651 -1.6579 -0.188628 0.170194 0.197565 -4.16068 -0.379068 0.0114341 -0.358429
85 1 5.86114 5.70789 5.79991 -1.3939 2.92153 -1.52887 0.453598 -4.06682 -0.430034 0.420006 -0.370048
86 1 7.1642 7.2662 7.16214 -2.10959 -1.28468 -2.12342 0.289547 -4.07665 -0.0484247 -0.332627 -0.0406076
81 1 11.3957 5.74633 5.82538 1.21325 -2.24339 -2.58555 0.397019 -4.14302 -0.391421 -0.344644 -0.330158
48 1 9.98247 4.3247 4.31521 -2.8434 -5.46124 -0.155592 0.132279 -4.12004 0.129416 -0.157978 0.0146235
56 1 9.97149 7.10684 4.1896 1.40416 -1.81691 2.95901 0.426047 -4.04368 0.0176085 0.21629 0.749273
80 1 9.94499 4.06755 7.06493 0.38146 3.05052 -4.32662 4.7079 -3.96564 0.60302 1.79525 0.562817
87 1 8.6618 5.80642 5.74661 -0.0176384 3.63687 -0.9994 0.467905 -4.13976 -0.836508 -0.542349 0.115497
88 1 10.023 7.198 7.1297 -3.36847 1.40249 -0.990762 0.22305 -3.9845 0.124501 -0.317035 0.725662
65 1 0.0908732 11.3356 5.68405 2.02361 1.33277 -0.100672 0.231462 -4.08854 0.378425 0.278846 0.509714
67 1 2.85919 11.4498 5.88503 -0.638411 -0.867742 0.468455 0.461972 -4.04435 0.653574 -0.587791 -0.893391
58 1 1.57064 10.0669 4.38756 -3.65249 1.62252 -2.29802 0.484353 -4.06737 -0.249023 -0.695357 -0.64888
89 1 0.113575 8.49725 5.64863 1.24156 0.630281 -0.091266 0.253547 -4.1538 -0.051786 0.328675 0.464356
90 1 1.48716 9.91667 7.29736 1.7614 -0.731593 -0.323778 0.383479 -4.09141 -0.270332 0.243598 -0.844625
91 1 2.834 8.49787 5.77113 4.78328 0.855929 -3.06187 0.256081 -4.07248 -0.103602 0.696284 0.206858
69 1 5.63634 11.2922 5.69934 0.0690876 -1.44496 1.36744 4.60636 -4.00829 0.509506 0.467662 -0.233506
60 1 4.15008 9.8605 4.37372 -0.724143 1.40549 -0.103268 4.33166 -4.0513 0.721702 0.74398 -0.214267
62 1 7.24477 10.0181 4.34796 0.93899 -0.856484 -0.66225 0.257133 -4.03864 -0.688589 -0.10837 -0.0791046
92 1 4.30377 9.91534 7.11778 -0.750474 2.13794 -2.31738 0.200354 -4.16525 -0.0619349 0.115651 0.362077
93 1 5.77111 8.68615 5.75785 1.10509 2.79529 -0.692152 0.385305 -4.06311 0.0473917 -0.597184 -0.252594
94 1 7.1356 10.0153 7.18777 -0.461862 1.21713 3.27967 0.170348 -4.10408 0.0970077 -0.605723 -0.04736
71 1 8.61716 11.3594 5.71923 -1.11355 -2.8843 -1.35657 0.093819 -4.06013 -0.304839 -0.0323043 0.191303
64 1 10.0448 9.9124 4.32772 2.71036 -1.21755 0.970824 0.112717 -4.0836 -0.550739 0.49421 -0.175336
95 1 8.63699 8.49597 5.69155 -1.14814 -0.435273 -2.56831 0.256642 -4.18756 -0.388912 0.272666 -0.0473729
96 1 9.97969 9.90682 7.22002 0.54434 0.205788 -0.824841 0.265881 -4.10192 0.439678 0.697994 -0.572239
98 1 1.48644 1.51502 9.93744 0.804894 0.20225 0.362761 0.166781 -4.16779 0.134269 0.0509991 -0.254779
107 1 3.06452 2.94833 8.57499 -5.58976 0.674523 -0.276789 0.339398 -4.01001 -0.40856 -0.145123 -0.239428
13 1 5.84629 2.86466 11.3024 -0.0677024 -2.329 -0.503601 0.460723 -4.03763 -1.1937 1.29473 0.977763
100 1 4.28743 1.52544 9.97123 -2.63877 -3.20149 2.87188 0.185202 -4.14772 0.104535 -0.407176 0.40928
102 1 6.99607 1.46195 9.97081 0.519049 3.26396 -0.641511 0.417516 -3.99404 1.5689 -0.426334 -0.496761
109 1 5.77191 2.85789 8.58824 0.779632 1.09786 0.0261795 0.229018 -4.16647 -0.407132 0.858513 -0.601069
7 1 8.56635 0.230138 11.3574 -2.22668 -0.92027 -1.58558 0.348219 -4.10051 -0.176003 -0.794489 0.235854
105 1 11.2474 2.92541 8.58681 4.15823 2.00237 1.2899 0.622228 -4.02759 1.18546 -0.746189 -0.149083
103 1 8.40337 0.20644 8.58102 2.61697 1.29859 -1.28645 4.86698 -4.08282 0.784668 -0.896147 -0.356641
104 1 9.89335 1.44142 9.85579 1.91101 -0.438896 -4.00197 0.392996 -3.95525 0.873308 0.859858 0.672586
111 1 8.41886 2.80149 8.44857 0.36453 -1.30746 -2.59541 0.321697 -4.20544 0.704641 -0.0748985 1.06265
19 1 2.88013 5.63664 11.4599 -1.44766 4.32557 0.999154 0.320585 -4.09204 -0.449395 0.375472 -0.653557
106 1 1.57083 4.13685 9.96525 1.88854 2.95481 0.638674 5.29836 -4.06259 -0.294298 0.918556 0.0376292
113 1 0.216318 5.58857 8.58407 2.0612 -0.996616 -1.35195 0.500457 -4.04939 -0.922411 0.787074 -0.29823
114 1 1.53219 7.04872 9.97578 3.23311 0.289374 1.27024 0.0605024 -4.04621 0.0155121 0.0558034 0.130095
115 1 2.95329 5.71242 8.52176 0.488889 0.133938 2.10834 0.107619 -4.12334 -0.258701 0.23829 0.0923955
108 1 4.38507 4.44609 9.93832 -0.0397031 -0.381499 -1.07288 0.461754 -4.12937 -0.315758 -1.10015 0.28735
110 1 7.08083 4.42422 9.97235 2.83703 -1.16699 2.03237 0.491194 -4.10445 0.498487 -0.307483 -0.0529738
116 1 4.3021 7.15649 10.0594 -0.248318 0.1043 -2.56969 4.69604 -4.17928 0.0638314 -0.390118 -0.647952
117 1 5.79031 5.71138 8.47445 2.61213 -1.31082 2.59403 0.311367 -4.07742 -0.220293 0.426366 0.289792
118 1 7.13063 7.12812 10.0338 0.503724 -2.28595 1.71705 0.134096 -4.20628 0.450319 0.222533 -0.339765
112 1 9.88091 4.30905 9.82025 1.46541 -2.20064 0.627523 0.475779 -3.91282 0.244485 0.0362604 1.21268
119 1 8.54828 5.68253 8.51333 -1.77657 2.48848 -0.470582 0.18281 -4.06883 0.24726 0.583912 -0.565277
120 1 9.94407 7.19467 9.99278 -0.594048 0.449689 0.903246 0.273568 -4.12489 -0.34448 -0.258621 -0.522028
25 1 0.0974488 8.48287 11.3231 -0.303778 2.14091 2.30268 0.193582 -4.08718 0.232316 0.0837453 0.454165
97 1 0.0667739 11.4487 8.54198 0.472182 0.317365 -0.636766 0.210473 -3.99316 0.0698132 -0.564881 0.181124
99 1 2.98999 11.2902 8.62833 0.230994 0.521674 -1.57875 0.246496 -4.07507 -0.0798217 0.352609 -0.164432
121 1 0.151419 8.45133 8.64295 1.11028 1.50535 -3.13928 0.290868 -4.07705 -0.0909261 0.0980139 -0.273198
122 1 1.55341 9.94546 9.99007 -0.329433 -1.75681 -1.32265 0.114642 -4.12117 -0.663663 0.123684 -0.522456
123 1 2.97695 8.45574 8.52949 0.992974 -3.61023 0.163711 0.244812 -4.10292 -0.25872 0.407068 0.553124
5 1 5.76198 11.3666 11.349 0.526114 -1.77926 3.56923 0.191622 -4.10113 -0.405701 -0.0628453 0.71292
101 1 5.71934 11.4164 8.51409 0.256747 -2.20168 2.45083 0.114606 -4.1956 -0.0848628 -0.349282 0.135543
124 1 4.41479 9.95172 10.0035 -1.22263 -2.30243 -3.64852 0.260118 -4.13083 -0.650082 -0.070342 0.0136671
125 1 5.68399 8.48572 8.66423 -1.83354 -1.71629 0.973654 0.294491 -4.03637 0.327106 0.498024 -0.518999
126 1 7.12907 9.9454 10.0168 1.87784 -0.827784 1.379 0.157061 -4.12403 0.220307 -0.0869535 -0.198612
31 1 8.62827 8.60906 11.4087 -3.84323 0.841792 2.02918 0.143901 -3.98749 -0.742888 0.244633 -0.12985
127 1 8.57413 8.62054 8.49603 -1.8399 -0.105535 -2.49368 0.207237 -3.95027 -0.652962 -0.772229 0.781166
128 1 9.92751 9.94421 9.95648 2.6613 -0.451372 0.931766 0.165035 -4.17239 0.330061 0.387333 -0.29745
