ITEM: TIMESTEP
1500
ITEM: NUMBER OF ATOMS
128
ITEM: BOX BOUNDS pp pp pp
7.2128678518743605e-02 1.1391871321481108e+01
8.4909787557165828e-02 1.1379090212442723e+01
8.2650102730278244e-02 1.1381349897269603e+01
ITEM: ATOMS id type x y z vx vy vz c_csym c_peratom fx fy fz
2 1 1.39149 1.42134 1.55781 1.20535 0.684214 0.335098 0.23131 -4.07813 0.207948 0.527585 -0.296325
11 1 2.80452 2.86 0.0946052 3.38496 -0.984934 -1.53557 0.0936439 -4.04695 0.429628 0.109455 -0.282321
41 1 0.02192 2.95144 2.97585 1.45352 0.943926 -2.12242 0.322979 -4.09263 0.619414 -0.833508 -0.545448
43 1 2.8822 2.88244 2.9941 0.673181 0.55869 0.922729 0.171095 -4.13551 0.285215 -0.316373 -0.658283
4 1 4.312 1.4425 1.4568 1.08601 0.056545 1.25889 0.193543 -4.0379 0.0216135 1.05132 0.944215
6 1 7.20786 1.44319 1.4108 2.20396 2.14763 -3.96339 0.295717 -4.00447 -0.958339 0.210242 1.14468
37 1 5.74324 0.111999 2.91032 -1.10705 -2.4766 -0.792573 0.0502115 -4.08717 -0.146844 -0.174173 -0.115965
45 1 5.6485 3.0135 2.92145 -0.422218 -2.62499 2.82809 0.454959 -4.02477 0.559254 -0.472178 -0.125927
9 1 11.3105 2.89314 -0.00629421 -2.76384 -0.744154 1.12806 0.149791 -4.08686 0.89052 0.257344 0.1539
8 1 10.0348 1.65045 1.46993 0.0232573 -0.1748 0.169057 0.596003 -4.05379 -0.0769761 -1.5782 0.718727
15 1 8.53789 2.84175 0.185089 -0.390736 0.687665 -1.4091 0.449716 -4.04431 0.348513 0.792399 -1.35798
47 1 8.68813 2.90193 2.95516 1.57676 0.7276 -2.00146 0.278823 -4.07908 -0.910158 -0.170292 -0.187663
10 1 1.47353 4.26833 1.5865 1.03357 -0.291981 5.82875 0.246392 -4.09168 -0.0302895 -0.0311798 -0.63272
17 1 0.120008 5.71727 0.0754418 1.57573 -2.66635 2.04518 0.19181 -4.07817 -0.384728 -0.232191 0.165734
18 1 1.4928 7.01659 1.47193 -4.3061 3.04541 2.49303 0.245127 -4.12766 0.060332 0.600283 0.284817
49 1 -0.0299882 5.74843 2.82237 -2.67215 -4.28018 0.570214 0.323806 -4.1416 0.434737 -0.056283 0.443177
51 1 2.88212 5.65122 2.92484 2.10972 -1.54923 -1.02791 0.0841112 -4.10948 -0.181369 -0.0285676 0.157489
12 1 4.26988 4.3395 1.46013 2.24469 5.18178 -2.70673 0.0837812 -4.04968 -0.180124 0.0411283 0.11861
14 1 7.21871 4.2846 1.51731 -0.207028 -0.326942 2.65403 0.149358 -4.07431 -0.198522 0.102227 0.0714732
20 1 4.21214 7.03769 1.52647 1.19331 2.17089 0.839319 0.391136 -4.09617 0.757886 0.707458 -0.356055
21 1 5.80335 5.71104 0.0700957 2.38885 2.48091 2.00651 0.0964933 -4.15411 -0.171178 -0.0962565 0.227684
22 1 7.1933 7.15269 1.41783 1.605 -2.37145 -2.17451 0.155405 -4.03867 -0.130401 0.0424425 0.63148
53 1 5.75931 5.74764 2.90369 1.33221 -2.8793 -1.61715 0.135781 -4.07141 -0.208726 -0.721584 -0.0772854
16 1 9.97253 4.27125 1.41861 3.81049 -0.931465 -0.575671 0.217542 -4.15256 0.0664675 0.589064 0.0884455
23 1 8.5403 5.70464 0.104356 0.914961 0.794489 -1.01619 0.111959 -4.04458 0.229429 0.331881 0.0253754
24 1 9.95345 7.3033 1.4337 -4.91403 2.55413 3.1472 0.416278 -4.08057 -0.367934 -0.856734 -0.0130725
55 1 8.6434 5.78054 2.89438 3.25999 1.52552 0.4779 0.198397 -4.11872 -0.491052 -0.326235 0.0513683
1 1 -0.0028975 11.4321 0.0470222 0.495845 -0.0461402 2.9125 0.244387 -4.10016 0.00230867 -0.334634 0.631139
3 1 2.95009 11.4512 0.101161 -0.31941 -1.68408 4.20117 0.438577 -4.01229 -0.772871 -0.6907 -0.243368
35 1 2.90723 11.3474 2.90732 -3.31718 -0.0235033 0.0348058 0.0595067 -4.10563 0.507094 -0.0264564 -0.205714
26 1 1.52581 9.91818 1.36495 -1.94926 0.909596 -2.03522 0.342238 -4.09399 -0.599174 1.1874 0.997422
27 1 2.81287 8.52507 0.0666704 1.46899 -0.112522 2.07497 0.202849 -4.06812 0.920008 -0.415989 -0.431079
59 1 2.88764 8.53497 2.86628 1.3666 2.6372 3.01777 0.0801584 -4.07938 -0.0191802 0.228139 0.341375
28 1 4.34964 9.89821 1.53063 0.37203 -0.265147 -4.18669 0.197215 -4.14176 -0.466511 0.37149 -0.349798
29 1 5.73892 8.52837 0.0966416 3.42856 -1.79367 -2.3589 0.105223 -4.07583 -0.0195939 0.243629 0.0527485
30 1 7.01681 10.0299 1.44483 -1.49566 -1.96112 -2.54779 0.387741 -4.05852 0.924419 0.0692857 0.111342
61 1 5.79733 8.61065 2.86519 0.934651 2.95879 3.12893 0.351008 -4.08633 -0.0706868 -0.921497 0.452415
33 1 11.3496 11.3115 2.96442 0.152392 0.160186 3.33917 0.262695 -4.03079 -0.154817 -0.0902994 -0.817051
39 1 8.67197 11.3627 2.80012 -0.0885887 0.388128 1.02016 0.536869 -4.08824 -0.654924 0.0922004 0.589024
57 1 11.4066 8.53037 2.81202 -0.320226 1.33517 1.20106 0.171195 -4.13778 0.128739 0.321275 0.632894
32 1 9.97447 9.95105 1.46354 1.0596 0.682404 3.20193 0.131338 -4.07592 0.261742 -0.0884081 0.0580474
63 1 8.50949 8.65647 2.97467 -1.9525 4.14251 0.717086 0.328252 -4.11864 -0.244468 -0.422331 -0.47993
34 1 1.46401 1.37878 4.20966 -5.14034 -0.412553 -3.07738 0.553254 -4.07813 -0.263513 0.879611 0.949594
66 1 1.53907 1.47771 7.18088 -0.871606 -0.121083 -1.11457 0.170933 -4.06412 -0.325823 0.0797854 -0.1011
75 1 2.89256 2.87276 5.65707 -1.517 0.846119 -1.10892 0.252475 -4.10754 -0.40035 -0.536065 1.04977
36 1 4.38715 1.51422 4.35526 1.97693 -0.0173295 -0.21156 0.166281 -4.07007 -0.469238 -0.146656 -0.171207
38 1 7.14542 1.52372 4.27515 -1.65352 -2.0003 0.824663 0.141274 -4.10445 -0.0312317 -0.127032 0.0237991
68 1 4.3938 1.50055 7.21369 2.63901 0.641691 0.388201 0.232745 -4.11304 -0.707848 0.399606 -0.437878
70 1 7.11232 1.48739 7.16531 0.47493 0.840477 0.206498 0.0845104 -4.219 -0.121513 0.0405857 -0.0363385
77 1 5.78029 2.96586 5.7967 -0.641306 -2.92094 1.99987 0.176508 -4.12174 -0.097277 -0.217695 -0.407082
73 1 11.4577 2.93505 5.77608 -3.26078 -0.794862 0.406596 0.192918 -4.06254 -0.480741 -0.506004 0.0199202
40 1 9.97904 1.3854 4.45915 -1.4453 2.53093 2.52233 0.499686 -4.09397 0.403737 0.710496 -0.897346
72 1 9.98203 1.54238 7.10494 -0.952701 -1.0327 -0.736393 0.207953 -4.07065 0.323171 -0.79957 -0.327581
79 1 8.5512 2.85953 5.72729 -4.41303 -0.364244 1.18331 0.137483 -4.12473 0.398095 0.0565611 0.0944351
42 1 1.40618 4.31076 4.38958 -0.636699 -2.03146 0.194791 0.232301 -4.10094 0.701116 0.507031 -0.676305
50 1 1.52208 7.13696 4.28892 1.2728 1.08676 -2.47892 0.056072 -4.08254 -0.257908 -0.21048 -0.161121
74 1 1.49018 4.41633 7.15239 1.85009 0.289458 -1.03937 0.259812 -4.07984 0.0121455 -0.19757 0.258149
82 1 1.56421 7.11588 7.16655 -1.2222 2.80257 -1.27263 0.191966 -4.09042 -0.462694 -0.0585439 0.0980613
83 1 2.95704 5.76398 5.73068 1.85636 2.01234 -0.906189 0.11784 -4.13154 -0.271562 -0.101659 0.171518
44 1 4.20883 4.27114 4.41257 -2.92786 0.378446 -3.40314 0.393685 -4.01697 1.28103 1.03082 -0.977902
46 1 7.24236 4.32101 4.464 2.16406 -2.19599 -0.053126 0.333663 -4.02587 -0.509225 0.17472 -1.13723
52 1 4.32374 7.12716 4.2584 -1.67654 0.994634 -1.23983 0.0888787 -4.11141 0.0973279 0.0983056 0.134974
54 1 7.08145 7.00197 4.35705 -2.16273 -2.66616 -4.84501 0.560432 -3.94993 1.1569 1.45622 -0.216847
76 1 4.34061 4.31546 7.146 0.674304 1.6053 -0.864345 0.102724 -4.08639 -0.363257 -0.158783 -0.134225
78 1 7.27867 4.33689 7.18687 0.847204 -0.130837 5.39245 0.336123 -4.17547 -0.830245 -0.0701541 -0.0137023
84 1 4.36899 7.10402 7.17291 -1.74724 -2.9152 -0.400391 0.0814855 -4.11101 0.197104 0.612686 -0.750667
85 1 5.76975 5.72331 5.74669 2.22391 -3.73371 -0.348879 0.145304 -4.14414 -0.621007 -0.582055 0.358942
86 1 7.0941 7.09198 7.21855 -6.34505 1.9641 -1.21953 0.20617 -4.0956 0.377171 0.983363 -0.835009
81 1 11.4165 5.79667 5.65656 -3.30337 -1.86823 1.16556 0.212808 -4.07575 -0.44564 0.0229942 0.209278
48 1 10.0212 4.28504 4.28711 1.23635 1.78333 -3.98524 0.148476 -4.08433 -0.635684 0.721711 1.16369
56 1 10.0013 7.20707 4.25504 -1.45776 -0.499879 3.33007 0.140482 -4.01252 -0.0622054 -0.0284629 0.423821
80 1 9.91271 4.3432 7.16283 0.371066 0.474522 -0.526914 0.199807 -4.16214 1.14284 -0.450338 0.273608
87 1 8.62584 5.68643 5.79833 -1.33231 1.92677 0.0210989 0.158811 -4.08881 -0.294409 1.01941 -0.843584
88 1 10.0065 7.10918 7.17294 -0.968365 -2.33829 -1.60426 0.104479 -4.07729 0.0219874 0.463293 -0.430623
65 1 0.0770729 11.3878 5.86213 2.65331 -1.93893 1.79463 0.32406 -4.12422 0.354933 -0.184079 -0.556774
67 1 2.89298 11.3286 5.70072 0.182774 2.28641 1.79021 0.133311 -4.14928 0.201123 0.543334 0.0365206
58 1 1.47756 10.0235 4.29517 -0.542929 2.79985 1.15862 0.17588 -4.07449 0.0778572 -0.581519 0.132445
89 1 0.177834 8.6074 5.72479 1.24117 -0.0319794 2.43929 0.178084 -4.1318 -0.651344 -0.531772 0.307825
90 1 1.51277 9.99469 7.14168 4.20507 1.04496 -1.19299 0.129367 -4.06759 0.0416155 -0.401551 0.167747
91 1 2.87898 8.49955 5.74613 -1.81885 0.511923 0.431175 0.130262 -4.15165 0.384806 0.540978 -0.0382131
69 1 5.6727 11.4856 5.78317 1.06675 -0.836078 -2.90376 0.257422 -4.0433 0.494939 -0.767202 -0.175601
60 1 4.39085 9.9593 4.35068 0.675806 2.57638 1.30145 0.152261 -4.09728 -0.374795 -0.0955474 -0.259044
62 1 7.13581 10.0752 4.40599 -1.67021 -2.18005 -0.539942 0.296507 -4.09504 0.0623697 -0.287166 -0.267153
92 1 4.33303 9.99619 7.14903 0.642189 0.934462 1.34509 0.0732145 -4.10321 0.654426 -0.549015 -0.459628
93 1 5.71776 8.49825 5.7195 -1.32899 1.05251 -2.78854 0.112539 -4.03421 0.244573 0.262267 -0.0229318
94 1 7.16104 10.0203 7.13382 -1.50066 2.71323 4.02172 0.0876392 -4.11214 -0.313338 -0.40851 -0.0394388
71 1 8.4875 11.4446 5.76879 2.03951 2.91277 2.99793 0.158913 -4.06393 0.356526 -0.427355 -0.0800556
64 1 9.99849 9.9579 4.38774 0.560387 -0.297578 2.68601 0.181707 -4.11657 -0.0232905 0.110995 0.168615
95 1 8.61365 8.53911 5.79224 -0.29773 -0.128855 0.983649 0.16679 -4.02935 -0.652046 -0.422287 -0.338315
96 1 9.92481 9.98042 7.14954 -1.95828 -2.18605 1.55069 0.142164 -4.06586 0.0849303 0.0980984 -0.297377
98 1 1.37485 1.38561 9.93172 -0.245386 -4.18489 -2.99233 0.314619 -4.0839 1.11194 0.489027 -0.0895959
107 1 2.87273 2.91072 8.50568 -0.769929 0.160634 0.123984 0.103682 -4.0125 0.166824 0.260579 0.717708
13 1 5.71505 2.9583 11.3907 -2.13779 -2.45245 0.595467 0.154867 -4.10265 -0.232653 -0.428651 0.0567442
100 1 4.3069 1.46003 9.87069 0.879403 -0.0235857 -1.64147 0.27194 -4.11205 -0.224337 0.773038 0.662771
102 1 7.11166 1.54529 9.94978 0.74926 -1.58208 0.128985 0.12504 -4.17725 -0.0214209 -0.0801108 0.400113
109 1 5.70769 2.99977 8.599 -0.144995 -1.60417 0.156118 0.25339 -4.07863 0.186024 -0.239478 -0.299324
7 1 8.57539 0.0743963 11.3297 -2.17217 0.784156 -0.506272 0.180088 -4.13398 -0.153996 0.225046 0.351862
105 1 11.2945 2.79183 8.61722 0.779896 0.954034 0.143953 0.38808 -4.0623 0.917003 0.685964 -0.93201
103 1 8.5642 0.109993 8.58832 -0.721412 4.78309 2.67098 0.132339 -4.14423 0.146971 -0.590857 -0.578944
104 1 9.88052 1.49035 9.88655 2.72455 -3.10601 -4.42548 0.194699 -4.12051 0.449659 -0.082088 1.39187
111 1 8.59506 2.77065 8.43393 0.110484 -2.27547 -1.73103 0.575055 -3.99873 -0.698302 1.39402 0.925082
19 1 2.86763 5.73215 11.3142 0.119589 2.72384 6.65547 0.184789 -4.11653 -0.0445053 -0.250371 -0.0519396
106 1 1.36681 4.27141 9.9204 1.63717 -4.26762 0.205576 0.27855 -4.02007 0.689383 0.424763 -0.165011
113 1 0.0069195 5.76727 8.54005 -3.58354 0.175557 -0.530487 0.0953257 -3.98192 0.449939 -0.341945 0.340615
114 1 1.47335 7.13279 9.90486 3.29751 1.95903 -5.83281 0.197517 -4.0958 -0.102302 0.107212 -0.0868405
115 1 3.1149 5.79464 8.58079 2.1355 -2.26565 0.771742 4.6945 -4.0759 -1.4906 -0.736265 0.539056
108 1 4.3623 4.38373 10.016 -2.52208 -2.18605 -0.0538215 0.169637 -3.99435 -0.415588 -0.645818 -0.152504
110 1 7.25669 4.26055 9.97163 5.27083 2.05005 -1.07808 0.371142 -4.14725 -0.279548 0.344002 -0.163798
116 1 4.42652 7.2021 9.96784 -2.98629 3.44738 0.935715 0.255481 -4.07872 -0.406101 -0.340325 0.339767
117 1 5.73534 5.74511 8.54885 -1.96039 -0.291461 -0.294358 0.123548 -4.18232 0.115095 -0.470757 0.512865
118 1 7.17036 7.1631 9.94811 -2.04302 -2.37776 -2.14099 0.0782003 -4.13688 -0.0984527 0.0460072 0.203735
112 1 9.93913 4.28853 9.93384 -0.503436 4.65107 -0.123987 0.120616 -4.20551 -0.281489 0.189688 -0.1282
119 1 8.50494 5.83279 8.54012 -1.97574 0.902578 -2.2508 0.384649 -4.03829 0.773496 -0.585838 0.366593
120 1 9.9519 7.10562 10.0015 0.672298 -1.51458 0.857031 0.164301 -4.14239 0.234915 0.352712 0.107787
25 1 0.123452 8.53055 11.39 2.79151 -2.07368 -1.85395 0.209644 -4.11134 -0.140397 -0.15162 -0.455374
97 1 0.0106892 11.3576 8.55261 0.225684 -3.73885 0.415328 0.115061 -4.18414 -0.30208 0.219466 -0.410545
99 1 2.97092 11.3452 8.40341 0.83402 0.650044 0.610143 0.565172 -4.01498 -0.834423 0.387664 1.56662
121 1 0.0419557 8.64067 8.50508 -0.299813 3.46161 -6.85949 0.25727 -4.11052 0.0874842 -0.649135 0.150965
122 1 1.37387 10.0144 9.92235 -0.78338 -3.99522 -0.399096 0.314072 -4.08362 1.1808 -0.050803 0.0759996
123 1 2.97176 8.47707 8.56927 1.93932 -1.79506 -2.66469 0.235315 -4.10619 -0.362763 0.736667 -0.0367796
5 1 5.64125 11.4015 11.4008 6.12375 0.913004 -1.0003 0.193512 -4.1101 0.919591 -0.0922315 -0.457776
101 1 5.76257 11.4355 8.62395 0.305632 0.967188 -3.50712 0.168452 -4.0505 -0.815827 0.129015 -1.09698
124 1 4.29773 10.0196 10.0738 -3.98759 -2.93588 0.0207524 0.28861 -4.11652 -0.219991 -0.319544 -0.82778
125 1 5.7047 8.63161 8.56953 2.58435 -0.908336 1.3364 0.139976 -4.09691 0.0931472 -0.484266 -0.143183
126 1 7.09486 10.048 9.81892 1.12579 0.842977 -1.79001 0.545154 -4.03979 0.637124 -0.986315 1.7704
31 1 8.48077 8.68063 11.3764 0.58745 3.02382 2.04345 0.326386 -4.10063 -0.0308536 -0.467759 -0.0989617
127 1 8.6433 8.51845 8.59148 -1.73627 -0.785808 -0.0029652 0.231172 -4.10538 -0.525082 0.486299 -0.210929
128 1 10.0102 9.94639 10.0946 -0.509596 -0.0369798 2.25204 0.395651 -4.08497 -0.0996225 -0.214973 -0.964108
