ITEM: TIMESTEP
17250
ITEM: NUMBER OF ATOMS
128
ITEM: BOX BOUNDS pp pp pp
9.1314796930777931e-02 1.1372685203068938e+01
9.2910516248825736e-02 1.1371089483751042e+01
8.2649212957682780e-02 1.1381350787042200e+01
ITEM: ATOMS id type x y z vx vy vz c_csym c_peratom fx fy fz
2 1 1.53734 1.58363 1.50412 4.75803 0.430918 0.151519 0.166007 -4.02959 -0.283138 -0.192951 0.146586
11 1 2.86643 3.01096 0.0478623 2.46553 -1.15681 0.806934 0.17334 -4.02044 -0.326606 -1.07269 -0.637788
41 1 0.0418092 2.96256 3.04641 3.56431 2.06764 0.423258 5.25362 -4.0676 0.846419 -0.49836 -1.21721
43 1 2.94672 2.95433 2.87199 -3.60091 2.13245 -0.983236 0.194235 -4.06004 -0.249518 -0.218927 0.429448
4 1 4.40709 1.52055 1.43556 1.80136 -1.27761 1.66191 0.16781 -4.14563 -0.66997 0.12729 0.472461
6 1 7.05813 1.38548 1.49847 -1.11259 1.43685 -1.91491 0.402519 -4.17406 0.514176 0.599237 -0.710002
37 1 5.83762 -0.00411116 2.99821 1.27532 -0.752295 0.514432 0.783826 -4.13538 -0.587889 0.186058 -0.393112
45 1 5.77925 2.87656 2.81411 -1.69335 -1.53787 -4.2932 0.192187 -4.05591 -0.298089 0.643251 -0.0856768
9 1 11.3143 2.96327 0.147899 2.74183 -0.430531 3.81529 0.287407 -3.98968 0.66193 -0.547755 0.0199228
8 1 9.79497 1.44981 1.36392 -2.23062 1.94565 4.14624 4.24664 -4.0363 1.34314 0.882528 1.11731
15 1 8.47179 2.95889 0.0123819 0.918423 0.771213 0.448969 0.318844 -4.02963 0.18018 0.111857 0.424705
47 1 8.48399 2.76218 2.97465 -5.10904 4.25284 2.22899 0.424196 -4.11345 0.487886 0.874757 -0.829566
10 1 1.56959 4.37589 1.48105 -2.27212 1.13554 1.25727 0.211775 -4.08051 -0.627771 0.0763587 0.370989
17 1 0.042185 5.72445 0.210016 -1.95498 2.4762 2.09609 0.245082 -4.08086 0.116751 -0.120755 -0.574023
18 1 1.50548 7.18188 1.59857 2.51565 -0.403031 -0.69196 0.108983 -4.06584 -0.365666 -0.124136 -1.09568
49 1 0.164104 5.73936 3.06035 1.00404 -2.70697 -4.85022 0.374663 -4.12288 -0.451686 -0.952419 -0.639329
51 1 2.95567 5.71706 3.01494 1.145 0.189746 -2.97424 4.65869 -4.14538 -0.286523 -0.264772 -0.697526
12 1 4.24703 4.24641 1.38163 0.0221507 -3.01853 -0.367839 0.413248 -4.09868 1.04602 0.911137 0.739695
14 1 7.17513 4.29767 1.47293 2.27969 1.23644 -3.22421 0.0836475 -4.0816 0.0244067 0.0124917 0.117755
20 1 4.27645 7.13384 1.5194 -0.101266 1.97557 3.0769 0.212418 -4.05654 0.254993 0.0124292 -0.0745602
21 1 5.7005 5.78027 -0.00569735 -0.969541 -1.10583 2.58039 0.15188 -4.14396 -0.210882 -0.919126 0.693415
22 1 7.12702 7.01672 1.41416 -1.47268 0.366548 0.625722 0.351881 -3.9971 0.415443 0.462206 0.612442
53 1 5.76521 5.6447 2.77798 4.53067 1.41067 1.63371 0.309225 -4.03829 -0.58197 0.513046 0.600133
16 1 9.96109 4.24748 1.58338 1.2861 1.73774 -2.91932 0.135953 -4.03505 -0.135983 0.208022 -0.386504
23 1 8.54511 5.7301 0.0668928 -1.36506 -0.645124 -3.05741 0.125341 -4.18699 0.529567 -0.261967 -0.185825
24 1 10.0002 7.09111 1.59799 -1.57358 1.91096 2.75247 0.25686 -4.0719 -0.234065 0.228018 0.313413
55 1 8.60046 5.63515 2.88992 2.01603 -0.516157 0.400885 0.195103 -4.03166 -0.408374 0.34487 -0.0638207
1 1 0.173751 11.3526 0.0689229 -0.632697 -1.26797 -0.869222 0.386125 -4.0569 -0.713527 0.49051 -0.172044
3 1 2.97557 11.4008 0.035149 -1.56402 -0.168357 2.02109 0.136774 -4.12606 -0.733607 -0.0533166 -0.191483
35 1 2.79829 11.3361 2.91426 0.0612379 -3.72834 1.69571 0.424674 -4.04803 0.706728 0.61253 -0.0158629
26 1 1.46826 10.0172 1.43384 -1.64932 -1.11675 -0.402068 0.184913 -4.04947 0.25717 -0.480384 0.546148
27 1 2.97353 8.61053 0.0758614 0.636645 2.04363 -0.721777 0.215212 -4.14155 -0.277446 -0.0799327 0.132849
59 1 2.86076 8.6136 2.80962 1.52575 -3.26547 1.75191 0.371288 -4.08142 0.31777 -0.371474 1.0163
28 1 4.27458 10.0456 1.60469 0.355854 0.638182 0.949208 0.459532 -4.08919 0.439065 -0.206279 -0.557897
29 1 5.75644 8.59293 0.145942 -0.38811 -1.04276 2.95119 0.213367 -4.17564 -0.204853 -0.0532435 0.0303437
30 1 7.169 10.0593 1.44743 -1.21444 1.55384 -0.924632 0.398657 -4.01595 -0.0866633 -0.293556 -0.102474
61 1 5.78921 8.53329 2.87576 -1.14435 0.980622 -1.90115 0.223571 -4.09887 0.170701 0.124327 -0.0203142
33 1 11.287 11.4195 2.95512 -2.39225 -2.4165 4.7521 0.173291 -4.12696 0.654683 -0.265418 -0.585951
39 1 8.56421 11.4425 3.02072 -0.496989 3.12246 1.69549 0.354628 -4.20379 -0.638417 -0.404945 0.206983
57 1 11.3927 8.61493 2.96589 0.761167 4.51127 0.176245 0.122822 -4.12484 -0.151995 -0.0218369 -0.160489
32 1 9.90561 10.0244 1.64233 1.21197 0.732784 -1.20584 0.4188 -4.02839 0.530139 0.332886 -1.15866
63 1 8.47829 8.65871 2.80086 2.21381 2.1315 0.395198 0.748064 -4.05624 -0.374577 -1.07804 1.15615
34 1 1.47119 1.46632 4.4072 -0.550324 0.540961 -0.298281 0.2112 -4.05236 0.396313 0.10229 -0.145224
66 1 1.61208 1.43968 7.14182 0.363368 -1.92875 -2.24903 0.214538 -4.06075 -0.877803 0.360544 -0.405778
75 1 3.04323 2.81089 5.64437 -0.0561455 0.904459 1.98255 4.30855 -4.08973 -0.12141 -0.0132647 0.672859
36 1 4.4072 1.51383 4.18702 1.61762 -0.994187 4.99499 0.415245 -4.12561 -0.874474 0.081233 -0.248426
38 1 7.00608 1.64524 4.35341 -1.79053 3.70177 2.46071 0.797166 -4.04889 0.854328 -1.29705 -0.0268798
68 1 4.40653 1.48109 7.17706 -2.581 0.148137 -1.22007 0.227196 -4.06169 -0.433323 0.25724 -0.122186
70 1 7.08815 1.46308 7.19687 0.403041 -0.714187 -2.04736 0.209573 -4.09526 0.129216 0.114757 -0.232747
77 1 5.6554 2.90523 5.71158 -1.57777 0.591182 0.0166731 0.298578 -4.10346 0.432321 -0.117128 1.04449
73 1 11.3283 2.92815 5.76885 0.232159 -1.63108 -2.27556 0.154908 -4.15983 0.166137 -0.257886 0.0831865
40 1 10.0032 1.51857 4.32559 -2.2447 3.13233 -1.33891 0.207991 -4.02536 -0.189192 -0.0144601 0.483205
72 1 9.96894 1.50792 7.19389 2.63262 -2.89273 2.60493 0.127019 -4.05725 0.536454 -0.201632 -0.236443
79 1 8.57214 2.8345 5.74145 0.585323 0.499522 -3.60504 0.230229 -4.15321 0.0571704 0.0558415 -0.0254983
42 1 1.59956 4.15149 4.45427 -0.214666 -1.06302 -2.39802 0.831256 -4.00443 -0.496913 0.875441 -0.869637
50 1 1.4961 7.14155 4.30844 0.659795 -2.80696 -2.81396 0.0908537 -4.06537 0.338957 0.92292 0.288247
74 1 1.50463 4.31619 7.17842 3.26655 -1.28042 -1.01253 0.284478 -4.08908 0.681156 0.131844 -0.507922
82 1 1.35552 7.08151 7.05986 0.261261 -1.98061 0.640055 0.551955 -4.07517 1.18162 0.546199 0.433477
83 1 2.96448 5.78143 5.5563 1.35147 2.12924 0.764748 4.851 -4.05721 -0.408723 -0.790088 1.36979
44 1 4.48616 4.30726 4.29233 1.455 1.02346 0.691438 0.464768 -4.12545 -0.759324 0.31758 -0.396828
46 1 7.11906 4.30253 4.35731 2.78711 3.4609 1.23455 0.126274 -4.21124 0.415132 0.328804 0.0261876
52 1 4.34232 7.19955 4.34568 6.34377 2.50642 4.15737 0.218182 -4.09312 0.368702 0.203799 -0.797953
54 1 7.19104 6.9865 4.28292 -2.03832 1.0014 3.20476 0.523565 -4.06279 -0.0299131 0.881535 0.0044748
76 1 4.34706 4.34837 7.03894 -0.537115 1.69487 -1.1412 0.175041 -4.03784 -0.748188 -0.143926 0.575743
78 1 7.2446 4.23868 7.14652 0.80906 -2.90558 -1.52236 0.368495 -4.1357 -0.847043 0.84226 -0.483204
84 1 4.29912 7.13936 7.10781 2.59099 -3.17754 -3.29933 0.0863078 -4.15118 -0.384807 0.39557 -0.177633
85 1 5.68746 5.7976 5.76109 0.28077 -1.8398 -0.9363 0.364057 -4.03812 0.637377 -0.24637 -0.361092
86 1 7.19313 7.09549 7.20307 -0.0803234 0.963937 -0.970791 0.1695 -4.15241 -0.139893 0.347573 -0.39781
81 1 11.421 5.6566 5.68387 1.34998 -2.38887 1.25601 0.331869 -4.12091 -0.634653 0.219428 -0.283384
48 1 9.87879 4.25628 4.33044 4.33247 0.783824 -0.995126 0.258083 -4.09482 -0.143926 0.591698 0.367878
56 1 9.85404 7.22093 4.33501 -1.20839 1.58635 1.8272 0.431708 -4.13365 0.286292 -0.236614 -0.0411823
80 1 9.95206 4.35917 7.10413 -2.35444 2.97315 -2.99813 0.140584 -4.15611 0.00744464 0.0664794 0.464143
87 1 8.60845 5.76609 5.78024 -1.21187 0.521618 -1.01629 0.168142 -3.97604 -0.240242 -0.169196 -0.0913375
88 1 9.99004 7.16104 7.1616 0.604709 -3.16199 -2.10813 0.063899 -4.13234 -0.0629536 -0.289173 -0.288608
65 1 0.0538709 11.3222 5.73414 -0.162163 -4.93162 -0.280488 0.137842 -4.11119 0.350048 0.490203 0.0458104
67 1 3.11608 11.3976 5.70534 -4.76377 -0.306695 4.08986 5.13461 -4.08567 -0.774661 -0.264063 0.329455
58 1 1.57271 9.98535 4.38808 0.707939 -0.168285 1.8112 0.35744 -4.13375 -0.73545 0.125745 -0.281352
89 1 0.0158038 8.57967 5.70835 1.88617 4.19515 -1.22779 0.168512 -4.08914 0.796324 -0.798224 0.0255842
90 1 1.54665 9.92331 7.15529 -0.862481 -3.08617 -3.47667 0.125917 -4.11813 -0.234971 0.556199 -0.259095
91 1 2.8456 8.56263 5.74093 2.20099 -0.620399 1.68762 0.194616 -4.04223 0.29952 -0.618929 0.0149124
69 1 5.65704 11.4361 5.61175 3.88711 0.784978 -1.82747 4.97306 -4.10249 0.622756 -0.768281 1.09686
60 1 4.28832 9.86637 4.33509 1.32647 0.827836 -3.22141 0.368628 -4.13999 0.16692 0.127512 -0.209178
62 1 7.12919 9.9814 4.46763 -1.50227 2.7708 -3.03333 0.503059 -3.96867 0.574833 -0.145025 -0.823041
92 1 4.38038 9.78152 7.09704 -1.51483 -1.83555 1.20546 0.639821 -4.14258 -0.296801 1.14198 -0.0307074
93 1 5.82038 8.52598 5.70889 -2.7895 1.78699 1.01629 0.343939 -4.08867 -0.315232 -0.586049 0.267792
94 1 6.98536 9.92137 7.24981 2.09133 0.36911 0.390286 4.61259 -4.03522 1.16716 0.900955 -0.556357
71 1 8.54716 11.4897 5.7322 -2.48099 0.462375 2.43449 4.96594 -4.12661 -0.144038 -0.886063 0.29373
64 1 9.9528 9.9457 4.39987 -1.73905 0.394892 -4.26944 0.193513 -4.07721 -0.395643 0.0872698 -0.629232
95 1 8.52714 8.59805 5.88515 -5.18017 -1.12768 2.20252 0.42501 -4.04578 -0.264475 -0.2455 -0.624085
96 1 10.0371 9.93375 7.10292 -4.67768 1.42334 -3.09259 0.213458 -4.05811 -0.745507 0.372392 0.617368
98 1 1.46704 1.55812 9.88075 0.16873 -3.38123 -0.973477 0.195176 -4.07576 -0.0333464 0.0395246 0.53132
107 1 2.97136 2.86989 8.47419 1.41356 -2.87228 -1.88393 0.245344 -4.02709 -0.0980906 0.214852 0.310678
13 1 5.7898 3.01748 11.278 4.08986 -1.45503 3.22071 0.374321 -4.03636 -0.131463 0.0698203 0.666928
100 1 4.40373 1.63902 10.0481 -5.12496 -1.81942 0.450812 0.580286 -4.12032 -0.584905 -0.65647 -0.750392
102 1 7.17065 1.52972 9.95308 -2.82999 0.0135662 -1.7633 0.0956949 -4.25543 -0.307854 -0.731003 0.0158769
109 1 5.76464 2.90112 8.53619 0.456858 3.44006 0.467543 0.0869892 -4.07687 -0.336771 0.322712 -0.0539245
7 1 8.57961 0.0447403 11.3497 -2.11763 -1.88719 -3.76169 0.260669 -4.04602 -0.652703 -0.315779 -0.242011
105 1 11.3705 2.98171 8.47584 0.264893 -1.29043 -2.54134 0.269067 -4.03109 0.147851 -0.957049 0.115437
103 1 8.63799 0.0853023 8.60996 0.0109901 1.3006 1.3629 0.268556 -4.07404 -0.487417 0.162817 -0.830534
104 1 9.93076 1.56576 10.0066 -3.709 -1.81337 2.53727 0.2021 -4.19642 0.500248 -0.277082 -0.158626
111 1 8.59824 2.87466 8.48524 -0.53823 -1.13161 0.17735 0.137053 -4.09599 -0.171232 0.256284 0.708453
19 1 2.91849 5.79016 11.4049 -0.30957 -1.37943 -0.426136 0.108646 -4.07429 -0.150137 -0.202374 -0.120054
106 1 1.40118 4.36244 9.94255 1.68693 1.52796 1.34879 0.176121 -4.19167 0.787429 -0.199527 0.293834
113 1 0.0534073 5.72077 8.55067 1.75334 0.841523 -2.04006 0.0814772 -4.10291 -0.0350684 0.0714931 0.00205773
114 1 1.46381 7.17114 10.0194 -0.0660171 2.54412 3.7472 0.132758 -4.11343 -0.261484 0.0596552 0.43281
115 1 2.80866 5.87919 8.61515 -0.811701 2.2747 -0.827196 0.534723 -3.9971 0.562401 -0.57177 -0.6733
108 1 4.24954 4.37611 9.87438 -0.834861 0.424357 0.927181 0.167347 -4.1415 0.119599 -0.0182499 0.131625
110 1 7.1125 4.34542 9.8625 2.25806 -1.73263 0.805241 0.137386 -4.10993 0.100137 0.274199 -0.0967844
116 1 4.32029 7.17118 9.94819 -1.33315 -0.739459 -0.715536 0.081226 -4.10727 0.0739644 -0.151895 0.146711
117 1 5.65027 5.73838 8.38621 1.53876 1.52516 1.5526 0.387413 -4.07277 0.508113 -0.327352 1.01292
118 1 7.0271 7.07796 9.9243 -4.95058 0.666797 -0.296753 0.399148 -4.00787 0.634792 0.82507 -0.190205
112 1 10.0538 4.22204 9.94459 0.819338 -0.455711 -2.58546 0.525189 -4.12448 -0.966805 0.859939 0.251459
119 1 8.55992 5.79167 8.65888 1.78808 -0.648439 -1.68565 0.459626 -4.07729 0.301561 -0.415564 -0.489959
120 1 10.0553 7.09 10.0002 0.492451 -2.30257 0.689398 0.326458 -4.00938 -0.331372 0.073236 -0.259953
25 1 -0.101239 8.6087 11.4415 1.72441 0.649385 -0.358142 4.67516 -4.09692 1.04944 -0.243876 0.141996
97 1 0.0462624 11.3263 8.57614 0.957668 3.48962 -1.00338 0.138819 -4.08943 0.494929 0.305026 -0.0400382
99 1 2.93701 11.3886 8.5645 -0.511945 0.0015235 -2.08826 0.120738 -4.10309 0.387333 -0.471644 0.334104
121 1 0.151517 8.4877 8.54061 -0.901637 -2.07865 -0.762894 0.143083 -4.13603 -0.723004 0.652594 0.238128
122 1 1.48119 9.85136 9.95723 -1.81611 -0.0752411 1.47179 0.304518 -4.03155 0.119711 0.572006 0.031739
123 1 2.94621 8.56406 8.5414 0.62832 -1.56737 -2.20216 0.10008 -4.09681 -0.340676 -0.294595 0.0701331
5 1 5.62755 11.3432 11.3834 1.56795 0.555149 -0.569457 0.42029 -4.02079 0.708651 0.135696 -0.323444
101 1 5.66499 11.352 8.56285 2.17415 -0.380277 -0.572613 0.19995 -4.02751 0.0531135 0.353589 0.269363
124 1 4.39561 9.96231 9.95376 -1.31253 -0.939945 3.84003 0.115251 -4.05642 -0.508692 -0.434163 -0.0982733
125 1 5.70193 8.46447 8.5274 -2.34426 0.764742 0.298763 0.191533 -4.09902 0.135171 -0.0427316 0.670204
126 1 7.13816 10.0469 9.93552 1.30087 -3.77036 -0.968906 0.27477 -4.07393 -0.232913 -0.654515 0.116595
31 1 8.59116 8.46652 11.3631 -1.34442 0.277191 2.01815 0.239071 -4.19024 -0.525359 0.35098 0.0587018
127 1 8.62121 8.60295 8.59975 -0.724129 -1.4559 0.943187 0.217479 -4.15124 -0.243529 -0.523021 0.16956
128 1 9.95843 10.037 9.98673 -1.57573 -2.09117 2.46137 0.231231 -4.03983 0.673799 -0.738722 0.0632389
