ITEM: TIMESTEP
15750
ITEM: NUMBER OF ATOMS
128
ITEM: BOX BOUNDS pp pp pp
8.8479709394545303e-02 1.1375520290605216e+01
7.1669876347532302e-02 1.1392330123652327e+01
8.2649297697929960e-02 1.1381350702301951e+01
ITEM: ATOMS id type x y z vx vy vz c_csym c_peratom fx fy fz
2 1 1.56 1.56179 1.5323 -0.863257 -1.76759 -0.324426 4.6876 -4.10156 -0.613089 -0.71085 -0.174061
11 1 2.87271 2.81387 -0.0831036 -1.15761 2.81908 -0.884013 0.754804 -4.05207 0.440426 0.982231 1.19431
41 1 0.0637119 2.89628 2.96254 -6.51303 0.746637 1.71583 0.208119 -4.05543 0.10648 -0.00755953 0.0401473
43 1 2.96941 2.87813 2.87661 -0.7201 2.41634 -0.148693 0.102415 -3.99495 0.015555 0.0293077 0.589417
4 1 4.35621 1.40233 1.45837 -1.68008 -5.59183 0.283853 0.18613 -4.14664 0.117725 1.29266 0.387749
6 1 7.10055 1.59059 1.50709 -2.50787 1.99294 4.29214 0.205152 -4.11918 0.170315 -0.413886 -0.453971
37 1 5.77009 0.0608921 2.88292 -0.284483 1.09704 0.185692 0.106547 -4.13689 -0.0720479 0.0581189 0.119887
45 1 5.6853 2.93668 2.94554 -2.26969 -4.35858 -1.95143 0.136639 -4.10255 0.346371 -0.312186 0.122494
9 1 11.3604 2.87379 0.0289152 -1.44889 2.12923 2.06517 0.177798 -4.03702 0.185248 -0.379039 -0.102428
8 1 10.032 1.53157 1.44202 0.29718 -0.0957291 0.181141 0.231046 -4.09671 -0.208713 -0.271629 0.320956
15 1 8.56462 2.93262 0.0460482 2.12591 3.65833 1.19666 0.0727112 -4.04632 -0.0384768 -0.169739 0.0593722
47 1 8.56035 2.86366 2.90263 -3.55661 -0.0533277 2.03076 0.116576 -4.11213 -0.188477 0.503583 0.00812419
10 1 1.45544 4.17044 1.4237 -2.05711 1.93295 0.834517 4.15336 -4.11558 0.411747 0.861248 0.557498
17 1 0.126051 5.75532 0.182697 2.32452 -1.4101 1.76136 0.26767 -4.03412 -0.0714863 -0.371377 0.357481
18 1 1.48663 7.10518 1.52419 4.62072 3.37545 1.6331 0.0961634 -4.07673 -0.173175 0.413169 0.32708
49 1 0.0565176 5.72854 3.00358 1.93729 -1.00221 -2.25978 5.14074 -4.10053 -0.0474887 -0.0222716 -0.622396
51 1 2.91589 5.7892 2.96729 2.76437 1.56364 -0.010624 4.91071 -4.07589 -0.373413 -0.675815 -0.0211033
12 1 4.35184 4.30793 1.46941 -0.59894 -1.69293 -2.51757 0.134852 -4.09185 -0.572856 -0.17915 0.0102111
14 1 7.06382 4.23123 1.42382 0.810893 0.206857 -3.83936 0.454676 -4.06554 0.893148 0.480352 -0.154979
20 1 4.33258 7.01083 1.55195 0.639657 -2.90405 -0.246174 0.385656 -4.07793 -0.0744531 0.795275 -0.452541
21 1 5.67435 5.80565 0.0297494 -0.327446 -1.25632 -2.55896 0.27796 -4.15148 0.466943 -0.464542 0.914699
22 1 7.1256 7.18071 1.46305 0.985882 -3.25097 -0.712803 0.0863911 -4.12948 0.0369257 0.147336 0.359327
53 1 5.85959 5.63632 2.81087 -4.00127 -0.59129 1.31246 0.660302 -4.06699 -1.3603 0.908251 0.636146
16 1 10.0013 4.2591 1.46643 0.782709 -2.45856 -3.49081 0.216667 -4.12913 -0.0285847 0.396435 0.115486
23 1 8.56545 5.86572 0.163722 -1.88739 -1.44337 -2.30228 0.473335 -4.07534 -0.233536 -1.40024 -0.562233
24 1 9.99421 7.18986 1.46554 -3.71393 -0.0247106 -0.355824 0.125632 -4.10504 0.0788774 0.263819 0.443204
55 1 8.53566 5.78292 2.83662 -2.45774 0.474902 -3.16544 0.124422 -4.12048 0.298647 -0.520156 0.538773
1 1 0.138747 11.235 0.0316333 0.654381 -1.85583 -0.838669 0.441381 -4.09462 -0.318896 1.18608 0.29546
3 1 2.94119 11.4096 0.179976 0.0493486 1.33634 0.664237 0.158143 -4.13117 -0.569678 -0.804408 -0.832792
35 1 2.9959 11.3133 2.85866 1.01436 0.952627 -4.44137 0.216405 -4.0993 -0.56864 0.615468 -0.069792
26 1 1.47056 9.90396 1.56547 -2.50414 1.60916 2.38899 0.251181 -4.0636 0.162825 0.630023 -0.306668
27 1 2.85362 8.48568 0.135742 0.466397 2.9165 -1.00443 0.128044 -4.14345 0.511909 0.419364 0.0882077
59 1 2.96098 8.6097 2.8461 -2.22339 1.73265 -1.06955 0.263442 -4.12581 0.0605804 -0.613567 0.558827
28 1 4.36035 9.96626 1.47999 3.50192 -1.47438 -3.25866 0.0619002 -4.11623 0.0521771 -0.0948094 -0.294931
29 1 5.65842 8.49353 0.0794892 -0.897268 0.66764 -1.84465 0.202193 -4.07714 0.146022 0.0797809 -0.239207
30 1 7.03716 9.83285 1.44132 -0.912176 2.0166 2.35186 4.62684 -4.06944 0.578633 0.977766 -0.118112
61 1 5.68509 8.49681 2.83975 1.9634 -0.515243 -2.03543 0.223495 -4.07755 -0.0843525 0.0479498 0.398718
33 1 11.3043 11.367 2.84639 0.522427 -0.84667 -0.60136 0.301119 -4.01624 0.557832 0.614397 -0.705419
39 1 8.44926 11.37 2.83341 1.56441 -0.0214699 -0.9589 0.285841 -4.07569 0.490674 -0.0630295 -0.201257
57 1 11.2885 8.66418 2.92677 -2.97562 3.74122 -3.89331 0.174658 -4.10372 0.380877 -0.687889 -0.0744938
32 1 9.88632 9.93842 1.40352 -1.24831 -4.81355 -1.49512 0.203068 -4.08625 0.168297 0.168149 0.441937
63 1 8.53096 8.60466 2.91078 -0.158147 -0.888866 -0.753498 0.0841273 -4.09869 -0.0182105 0.00942035 0.00678376
34 1 1.52572 1.3712 4.30394 0.782001 -2.21956 -1.00227 0.195611 -4.15682 0.114744 0.494029 -0.194721
66 1 1.61236 1.39225 7.07923 -0.749069 0.868656 -1.76199 0.345855 -4.09154 -0.0650562 0.106595 0.0449676
75 1 2.88893 2.98341 5.7396 3.96763 -1.36231 2.81573 0.24281 -4.12156 0.185587 -0.373664 -0.090209
36 1 4.38669 1.4383 4.38593 1.0568 0.143881 -0.962609 0.124096 -4.05702 -0.507669 0.34592 -0.528409
38 1 7.14527 1.48095 4.28544 0.64243 -3.8746 -1.42624 0.12692 -4.06854 -0.0867466 -0.0557081 0.180695
68 1 4.21579 1.48254 7.23047 -0.106785 2.91945 -3.00906 0.366758 -4.03017 0.527173 0.272766 -0.228331
70 1 7.14218 1.51347 7.24868 3.47404 5.8539 4.46633 0.17091 -4.07718 0.0813618 0.247934 -0.165744
77 1 5.7628 2.88283 5.74669 -0.807328 -0.258075 1.34678 0.107986 -4.16503 -0.301986 -0.125385 0.0787005
73 1 11.4381 2.82869 5.73772 0.839569 -0.801271 -2.74695 0.188876 -4.0741 -0.178906 0.336584 -0.309996
40 1 9.89573 1.44127 4.29066 -1.31191 -0.307833 3.84661 0.12457 -4.13551 0.240391 0.138205 0.667131
72 1 9.94967 1.47239 7.08439 1.32409 1.75678 3.53517 0.13587 -4.13146 -0.0977605 0.131418 0.241756
79 1 8.40387 2.98515 5.73768 1.25778 1.35716 -3.192 0.489385 -4.04444 0.493565 -0.569677 -0.0446462
42 1 1.48756 4.28091 4.28646 0.181739 3.96541 -0.891963 0.103923 -4.05742 0.149516 0.0157031 -0.106381
50 1 1.46924 7.2845 4.37546 0.807503 0.265281 1.60735 0.338594 -4.06339 0.0597628 -0.208178 -0.529002
74 1 1.41249 4.41878 7.10772 1.55001 1.07734 -1.33267 0.476567 -4.04715 0.439638 -0.323077 -0.175051
82 1 1.54877 7.09558 7.04631 -2.3432 1.45045 1.06593 0.287964 -4.04529 0.157235 0.544791 0.396634
83 1 2.89408 5.72446 5.60799 -1.2749 -1.79697 3.41409 0.361286 -4.07357 -0.42835 -0.271865 1.15394
44 1 4.31668 4.32128 4.37464 -1.33899 3.53606 1.86747 0.170198 -4.05313 -0.0352878 -0.45375 -1.08231
46 1 7.13766 4.41176 4.29878 1.22627 0.401742 -3.92847 0.213205 -4.06307 0.359162 -1.02846 0.0455497
52 1 4.33465 7.09874 4.42963 -1.06986 0.657466 3.25239 0.629383 -4.0847 0.376171 0.860486 -1.27671
54 1 7.07664 7.19102 4.38022 1.51497 -0.181148 -1.92936 0.434079 -4.13903 0.350785 0.0480663 -0.0159439
76 1 4.39263 4.32296 7.16872 -2.87478 1.38491 2.68727 0.16447 -4.11352 -0.591331 0.460266 -0.53711
78 1 7.00416 4.32218 7.22175 1.64421 0.230798 -1.84819 5.05155 -4.11369 1.28661 0.947752 -0.514751
84 1 4.42737 7.12142 7.14413 0.16852 3.01915 -2.18049 0.287943 -4.15225 -0.913548 0.0419396 -0.181145
85 1 5.68052 5.65431 5.63033 -6.13677 -2.32061 0.405443 0.460948 -3.99287 0.518343 0.19994 1.0906
86 1 7.09595 7.03732 7.05263 0.491806 -1.6521 1.61533 0.672546 -4.12845 0.0767799 0.344251 -0.0812707
81 1 11.3298 5.75995 5.58898 0.189085 -3.06855 -2.14462 5.1025 -4.17994 -0.111092 -0.0306818 0.885437
48 1 9.9708 4.24948 4.38369 -0.877943 0.449146 -4.08442 0.253392 -4.02391 -0.16321 -0.174337 -0.443125
56 1 9.89033 7.27038 4.27537 -0.410308 0.0240283 0.298986 0.298744 -3.99667 0.163853 -0.569835 0.129167
80 1 9.9648 4.18886 7.17883 -3.50488 3.70707 0.273319 0.623784 -4.10258 0.0390559 0.662761 -0.0467117
87 1 8.60355 5.67473 5.66948 -1.35454 -5.43626 -0.108987 0.366758 -4.05977 -0.0363614 0.221614 0.471165
88 1 9.87835 7.09924 7.1514 2.80275 0.754734 4.76713 0.37865 -3.95392 0.639703 -0.0461472 -0.494075
65 1 0.166598 11.3513 5.7823 2.73442 -0.47806 3.13662 0.232805 -4.02039 -0.335325 0.654009 -0.686739
67 1 3.06728 11.3366 5.7036 -1.2065 1.77436 -0.741148 0.436238 -4.07133 -0.670111 0.101836 0.203851
58 1 1.50824 10.0304 4.29547 2.3674 -0.795111 0.546317 0.101072 -4.18562 -0.196464 -0.294289 0.321728
89 1 -0.00824894 8.55509 5.85016 -0.0760526 0.11409 0.175547 4.57853 -4.15978 0.353958 0.153425 -0.629007
90 1 1.49953 9.9749 7.07944 1.10783 -2.45491 -0.878455 0.266172 -4.13043 0.607495 -0.109973 0.477462
91 1 2.95634 8.64514 5.62827 -0.700624 0.551816 -1.93044 0.317691 -4.03801 0.0623641 -0.489191 0.533315
69 1 5.74872 11.4064 5.86845 2.64762 1.57539 1.0362 0.28408 -4.21387 0.0424924 -0.0230544 -0.537996
60 1 4.37306 10.0393 4.22301 -4.03495 -0.124776 -1.60444 0.205087 -4.10729 0.320145 -0.605249 0.651849
62 1 7.09083 9.95221 4.34556 -0.446906 -3.11467 0.752618 0.194932 -4.07635 0.0878829 -0.0802352 -0.341456
92 1 4.27327 9.96191 7.1849 1.04053 -2.02195 2.89215 0.25139 -4.09877 0.154174 0.0294665 0.186068
93 1 5.68285 8.68913 5.78866 1.36309 -1.92969 -0.985114 0.522752 -4.05819 0.0430588 -0.371138 -0.235848
94 1 7.14042 9.90115 7.15028 -1.37891 3.47256 -0.860059 0.231084 -4.02484 0.493071 0.359135 0.219206
71 1 8.4177 11.3568 5.7695 4.04465 -0.0446619 4.48081 0.475435 -4.10151 0.461322 0.187876 -0.291239
64 1 10.0296 10.133 4.32059 1.4737 0.32985 -1.54171 0.566686 -4.11536 -0.711527 -0.773665 0.354184
95 1 8.71354 8.68741 5.77238 1.35585 1.46129 0.024473 4.60738 -4.10091 -0.980695 -0.475869 0.153233
96 1 10.0612 10.1332 7.19884 0.546497 0.675679 0.841086 0.711079 -4.05966 -0.844811 -0.417305 -0.0711865
98 1 1.51269 1.40651 10.018 1.09838 -0.227218 1.72977 0.183492 -3.98823 -0.209401 -0.0423556 -0.390384
107 1 2.9325 3.01348 8.58467 0.32167 -1.23619 1.52374 0.245648 -4.13096 -0.698554 -0.43716 0.0598388
13 1 5.71408 2.96198 11.3045 4.53268 -3.61732 0.560178 0.211374 -4.06821 -0.502826 -0.0110489 0.77472
100 1 4.40474 1.53498 10.0204 0.715801 -1.41213 -0.887456 0.269516 -4.06733 -0.433929 -1.11354 -0.798707
102 1 7.05552 1.56342 10.0235 1.65304 -0.843266 1.98235 0.241912 -4.15881 0.786993 -0.59748 -0.552312
109 1 5.69979 2.96022 8.58828 2.9818 0.232487 0.485396 0.0521043 -4.16498 -0.420024 -0.37297 0.190872
7 1 8.63601 0.177213 11.2925 2.31157 -0.222113 6.03094 0.455982 -4.03835 -0.403295 0.0406262 0.942623
105 1 11.5814 2.76598 8.43216 -2.51563 2.12424 -4.78032 4.71214 -4.00432 -0.669126 0.572662 0.661765
103 1 8.50368 0.0585509 8.56439 -4.16806 0.846968 -1.16587 0.185039 -4.10283 0.227498 0.377658 -0.236565
104 1 9.99217 1.5225 9.86893 -1.22601 1.38365 0.294514 0.216121 -4.1043 0.0238448 -0.175923 0.0652591
111 1 8.46352 3.00013 8.61048 0.856247 -1.03398 1.40366 0.254392 -3.98933 0.483285 -0.50169 -0.257888
19 1 2.89442 5.69245 11.403 -1.4455 -0.192333 0.202165 0.0765349 -4.08981 -0.456517 0.408327 0.514439
106 1 1.35245 4.42007 9.98482 -0.0500591 -0.340338 1.71474 0.866821 -4.1553 0.595175 -0.50065 -0.233721
113 1 0.0485898 5.78797 8.4762 0.617786 2.94123 1.81407 0.355926 -4.0671 0.199447 0.00554737 0.138743
114 1 1.5459 7.10731 10.0055 -0.596513 1.38252 0.115979 0.107594 -4.17198 -0.435757 -0.167978 -0.272146
115 1 2.91232 5.71726 8.55411 -6.65434 -1.79118 -1.04428 0.0841307 -4.06363 -0.0619021 -0.113857 -0.018068
108 1 4.26556 4.43681 10.0597 0.906954 -1.26775 2.67563 0.415041 -4.11392 0.617124 -1.05352 -0.988565
110 1 7.08634 4.32957 9.96548 -2.40294 -1.01414 1.25475 0.129643 -4.13256 0.625266 0.362797 0.420761
116 1 4.24741 7.14133 10.0179 -2.03713 -1.32414 -0.983846 0.132645 -4.12461 -0.0272484 0.22749 -0.640667
117 1 5.70042 5.70885 8.66967 0.962774 0.427623 1.1901 0.17903 -4.07717 0.0390384 0.50246 -0.228642
118 1 7.11244 7.1181 10.0686 0.89803 0.496323 0.60354 0.222548 -4.0077 0.432852 0.550309 -1.07907
112 1 10.0073 4.40016 9.9923 3.19878 -2.77597 -1.26587 5.113 -4.14226 0.0887075 -0.521017 -0.202425
119 1 8.6243 5.81001 8.6386 0.955469 -1.83513 0.786699 0.457929 -4.04704 -0.890774 -0.480501 -0.140813
120 1 10.1099 7.06069 10.1195 -0.0597173 2.70853 -1.13032 0.837498 -4.06396 -0.974965 0.745219 -1.09205
25 1 0.0906319 8.55475 11.3826 -0.418805 -3.0878 -3.44121 0.0980156 -4.15617 0.274707 0.301994 0.0994587
97 1 0.213248 11.3808 8.54761 0.777242 -0.54018 0.638752 0.218573 -4.14143 -0.295276 0.0384025 0.376892
99 1 2.88399 11.3252 8.67151 0.860705 -1.8163 -0.371822 0.272001 -4.12747 0.209178 0.409289 -0.324485
121 1 0.0936546 8.52376 8.54375 -1.08811 -2.01866 0.77044 0.122138 -4.19175 -0.082113 0.0615386 0.00705813
122 1 1.53024 9.8932 9.99525 2.01435 -0.471158 -2.42503 0.0627334 -4.02958 0.0798372 0.00728676 -0.0664267
123 1 2.87822 8.5922 8.56415 0.11591 -0.725064 0.7041 0.143014 -4.04265 0.352503 -0.493895 -0.286363
5 1 5.76264 11.4273 11.4086 -2.85824 0.635972 1.89866 0.0661953 -4.04831 0.102061 -0.337568 -0.265122
101 1 5.75706 11.3787 8.52349 0.375369 -2.30748 -3.95266 0.185451 -4.14602 -0.0729782 -0.0390311 0.271445
124 1 4.36086 9.9748 9.98016 -0.0100335 1.59281 3.12461 0.0936242 -4.04942 -0.137691 -0.0259477 0.18939
125 1 5.81972 8.56527 8.5364 2.77068 0.0249252 0.551659 0.247055 -4.05988 -0.285056 -0.117515 0.799184
126 1 7.25553 10.0906 10.0278 0.442995 2.10832 -1.79326 0.534913 -4.03577 -1.23017 -0.867862 0.0419566
31 1 8.56182 8.56119 11.3176 0.706562 -1.388 2.71388 0.223476 -4.15468 -0.0220994 -0.154144 0.107815
127 1 8.58757 8.52168 8.52096 0.280789 4.87027 3.18739 0.228199 -4.14915 -0.0971155 -0.0695937 0.400258
128 1 9.91745 10.0082 9.94778 4.51665 1.1081 -0.709881 0.207491 -4.06169 0.577772 -0.170421 -0.141486
