ITEM: TIMESTEP
0
ITEM: NUMBER OF ATOMS
128
ITEM: BOX BOUNDS pp pp pp
8.2650187470525438e-02 1.1381349812529356e+01
8.2650187470525438e-02 1.1381349812529356e+01
8.2650187470525438e-02 1.1381349812529356e+01
ITEM: ATOMS id type x y z vx vy vz c_csym c_peratom fx fy fz
2 1 1.46712 1.50069 1.48439 1.03312 -2.18005 2.4411 0.0652361 -4.13396 0.0927343 -0.284221 0.0742233
11 1 2.87003 2.9776 0.117513 -3.14443 5.90029 -0.673277 0.106813 -4.02813 -0.035247 0.177787 0.152611
41 1 0.107348 2.91205 2.84277 -0.480226 -3.57422 -0.303941 0.192253 -4.04283 -0.198457 0.0476417 0.453528
43 1 2.81047 2.846 2.95872 -4.88083 2.88262 -2.70223 0.24354 -4.04606 0.783815 0.995713 -0.52924
4 1 4.31126 1.50049 1.51845 -3.18373 -1.96084 1.7374 0.0749788 -4.11635 -0.177835 0.15228 -0.142434
6 1 7.20978 1.44847 1.42298 1.38175 -0.147927 -6.68879 0.190865 -4.06096 -0.93288 -0.0491932 1.1484
37 1 5.68994 0.102618 2.88139 2.38177 1.57805 -1.44108 0.109085 -4.03692 0.42552 0.319496 0.171357
45 1 5.7227 3 2.94335 -0.178008 0.652515 -2.69415 0.253254 -3.99514 0.399237 -1.10463 0.0368653
9 1 11.3565 2.92288 0.0841496 2.44363 1.79455 0.756286 0.057325 -4.09564 0.140384 -0.162648 0.0503084
8 1 9.99311 1.45872 1.61834 -3.32418 0.517425 -2.82444 0.353021 -4.09404 0.237955 0.277736 -0.933549
15 1 8.63541 2.79559 0.183507 1.5797 0.308557 -2.93463 0.405556 -4.10542 0.0782369 0.711451 -0.95475
47 1 8.53612 2.87969 2.88966 1.12014 -1.34123 -0.562667 0.182312 -4.07432 0.958627 0.493813 -0.438048
10 1 1.47466 4.44235 1.56494 0.517238 1.6906 2.8557 0.322468 -4.08825 -0.166395 -0.696697 -0.678814
17 1 0.0987662 5.78683 0.128999 -1.02748 -2.9939 1.22554 0.0963887 -4.03128 0.0214011 -0.311642 -0.593475
18 1 1.4767 7.18852 1.51119 -1.14367 -2.27255 4.0745 0.146919 -4.08804 -0.00346937 0.0324318 0.384016
49 1 0.11899 5.81282 3.06654 2.18557 -1.32055 0.556245 0.490517 -4.01176 -0.669457 -0.23711 -1.11153
51 1 2.9893 5.65204 2.85628 0.129317 0.935902 6.75016 0.36769 -4.08893 -0.688434 0.364154 -0.110658
12 1 4.37891 4.24197 1.55068 3.8263 -1.4439 1.44983 0.379887 -4.05837 -0.834924 -0.0155173 -1.01604
14 1 7.23821 4.25771 1.5443 0.50166 1.79888 1.37446 0.213765 -4.12634 -0.693516 0.360268 -0.818011
20 1 4.37681 7.10933 1.50675 -3.01765 3.09298 0.34738 0.163275 -4.11332 -0.964328 0.641004 -0.129641
21 1 5.64751 5.70515 0.132186 -0.567806 1.79303 0.411601 0.282778 -4.08277 1.1497 -0.142606 0.250881
22 1 7.11982 7.1452 1.52776 0.569014 2.36711 -2.15766 0.0753488 -4.12339 0.146445 -0.0658211 -0.300437
53 1 5.69198 5.7107 2.77018 -1.62304 0.0394628 -1.81201 0.370753 -4.11039 0.935132 -0.513261 1.32966
16 1 10.0443 4.36641 1.47542 -0.186241 -1.63709 1.03243 0.242422 -4.17789 -0.226366 -0.0103076 0.543664
23 1 8.56968 5.67291 0.166246 0.244249 0.15034 -0.792076 0.171092 -3.97891 -0.385643 0.518122 -0.36455
24 1 9.93841 7.09499 1.51524 0.195671 2.38421 -0.753989 0.14481 -4.10226 0.612387 0.297981 0.0556933
55 1 8.52935 5.67798 2.94774 -0.0113895 -3.14083 1.90884 0.102109 -4.10095 0.14285 0.539885 -0.0458
1 1 0.106737 11.3361 0.139446 0.770481 -1.38933 -3.47288 0.114284 -4.09741 -0.293247 0.249868 -0.560226
3 1 2.90741 11.3465 0.182922 -0.335406 -0.6741 -0.211959 0.17929 -4.09048 -0.54348 0.763356 -1.11456
35 1 2.82335 11.3307 2.91734 1.09665 -1.64747 2.33463 0.181852 -4.1411 0.391079 0.740855 0.239949
26 1 1.54915 9.93623 1.53545 0.0571948 -1.4285 -1.46115 0.137488 -4.10257 -0.568883 -0.267889 -0.143523
27 1 2.99454 8.53599 0.0997503 2.76402 -1.9396 4.31228 0.132899 -4.19388 -0.448266 -0.130564 -0.158835
59 1 2.96805 8.57578 2.94254 -0.187651 -0.0252706 -1.72033 0.17789 -4.11071 -0.293522 0.128285 -0.297212
28 1 4.25383 10.0852 1.52913 -0.462598 -1.33611 0.0358542 0.30597 -4.1099 0.718549 -0.799745 0.29763
29 1 5.61909 8.56536 0.146853 3.15907 -0.963375 0.0610731 0.255658 -4.153 0.810392 0.182739 -0.500636
30 1 7.10145 9.92769 1.54245 -2.01389 -0.0656887 2.89904 0.18613 -4.05007 0.672629 0.400588 -0.691866
61 1 5.64718 8.65966 2.81989 0.916367 -3.88052 0.213553 0.372437 -4.09165 0.206547 -0.596421 0.820079
33 1 11.3272 11.2805 2.9685 2.18069 -2.4121 2.23143 0.236418 -4.13257 0.567451 0.637617 -0.393477
39 1 8.61812 11.3683 2.84419 -1.82106 0.836562 -0.870326 0.288408 -4.05661 -0.859234 -0.604462 0.333751
57 1 11.2939 8.64781 3.04283 2.67689 -3.53225 -2.27243 0.464131 -4.09646 -0.0389179 -0.383205 -0.927098
32 1 9.98796 9.97031 1.50657 -1.8437 3.32673 5.40892 0.107872 -4.03178 -0.333678 -0.0852562 -0.427345
63 1 8.56358 8.54479 2.88337 2.27855 -4.04881 1.85388 0.123541 -4.05685 -0.186973 -0.0173425 0.453556
34 1 1.45489 1.51355 4.24604 0.516266 -1.11406 -0.913432 0.258494 -4.08067 -0.521952 -0.554388 1.30005
66 1 1.60185 1.48625 7.10081 1.0412 3.48697 1.61465 0.204423 -4.05859 -0.655997 0.0321457 0.821424
75 1 2.89889 2.84623 5.73423 2.75333 -0.481578 0.500342 0.145625 -4.00555 0.314093 0.208895 -0.754428
36 1 4.27109 1.49897 4.29277 -1.219 1.21664 -2.62443 0.0650643 -4.13562 0.355277 -0.118627 0.31329
38 1 7.30233 1.57156 4.29003 -1.76163 1.24876 1.97213 4.68719 -4.08169 -1.65138 -1.14867 0.72987
68 1 4.35943 1.48036 7.00779 1.07694 -1.33805 6.7009 0.425356 -4.09776 -0.292717 -0.0475929 1.09236
70 1 7.18703 1.53535 7.15431 -1.6204 1.71614 -1.7419 0.154123 -4.05466 -0.703196 -0.577995 -0.320387
77 1 5.76037 2.89065 5.77243 3.23176 -0.379518 -2.22196 0.161736 -3.9858 0.210812 0.165892 -0.58981
73 1 11.3573 2.96703 5.74965 -1.2766 -3.11761 -1.39729 0.162496 -4.04105 0.211453 -0.475841 -0.0973382
40 1 9.8911 1.4341 4.37629 -2.3885 1.70069 -0.949118 4.76828 -4.16443 0.720019 0.265831 -0.00764978
72 1 9.96621 1.45838 7.11728 -1.11618 4.57528 -3.31175 0.138911 -4.10005 0.294617 -0.215331 -0.0518452
79 1 8.62689 2.99029 5.78907 0.613865 2.32199 -2.57142 0.300039 -4.131 -0.598622 -0.0542533 -0.197707
42 1 1.44307 4.39281 4.35893 0.514776 -2.69618 0.543585 0.226241 -4.18562 0.648343 -0.582509 -0.0679822
50 1 1.52046 7.23826 4.25158 1.25477 1.46432 2.6736 0.25356 -4.09662 0.150131 -0.387966 0.388954
74 1 1.63116 4.31615 7.02147 2.00971 3.2686 -1.61975 0.50452 -4.09235 -0.658118 0.184687 0.641617
82 1 1.45161 7.17841 7.04883 -0.937687 1.61334 2.53003 0.178558 -4.03917 0.118645 -0.14407 0.387199
83 1 2.91393 5.8852 5.60256 4.248 -2.11152 1.57347 0.513982 -4.05917 -0.0773778 -0.516685 0.964512
44 1 4.2398 4.36045 4.38417 2.41605 0.672626 0.27246 0.348351 -4.16088 0.691143 -0.413657 -0.242546
46 1 7.14518 4.28745 4.28435 1.9657 -0.211334 1.05402 0.123921 -4.08525 -0.222425 0.536902 0.501851
52 1 4.31833 7.05589 4.13264 -2.97056 0.902251 -2.79521 5.01586 -4.03027 0.255925 0.912931 1.01912
54 1 6.97675 7.12913 4.27088 0.146223 3.57232 -0.704875 0.340463 -4.01704 1.05226 0.764341 -0.631421
76 1 4.32166 4.30759 7.12303 -0.83921 -1.33481 -1.76011 0.066201 -4.14054 -0.00264783 0.257723 -0.182485
78 1 7.09724 4.39062 7.19837 -0.392109 0.25352 0.271783 0.237772 -4.11078 -0.299422 -0.616039 -0.53706
84 1 4.29494 7.17536 7.13842 2.43624 -2.80793 0.271473 0.0582875 -4.00244 0.126184 -0.342383 -0.0800001
85 1 5.7449 5.85268 5.721 -1.85089 -3.50792 -0.425757 0.324208 -4.05206 -0.434462 -1.0146 0.440374
86 1 7.23648 7.1365 7.20938 2.79018 -0.943124 0.607751 0.347055 -4.16543 -0.5962 0.134501 -0.207163
81 1 11.3415 5.77978 5.74326 -0.251643 1.0045 -4.6946 0.147 -4.14854 0.212018 -0.151422 -0.107915
48 1 9.98203 4.31274 4.24197 1.86379 1.91252 -2.6184 0.275069 -4.13457 -0.0464049 -0.0717895 0.343723
56 1 9.95704 7.1228 4.38455 3.64325 -5.07144 0.996043 0.0957958 -4.06393 -0.149353 0.321522 -0.234271
80 1 9.98407 4.37913 7.09068 -0.864183 -0.35208 3.03868 0.0932473 -4.05433 0.164483 0.037202 0.29131
87 1 8.49692 5.77759 5.73214 -4.87239 1.54128 2.49587 0.119431 -4.15841 0.283965 -0.493516 -0.272179
88 1 9.94285 7.15113 7.13783 -0.493226 -3.3157 -0.223552 0.0763975 -4.14708 0.148473 0.442349 0.0885156
65 1 0.146121 11.2893 5.81073 -1.36529 2.88137 0.0900001 0.425096 -4.05666 -0.501301 0.851815 -0.611092
67 1 2.88648 11.2835 5.70037 5.60027 1.13666 -0.197934 0.262172 -4.17771 -0.243876 0.81578 -0.0805037
58 1 1.46968 9.99802 4.32239 -1.65024 0.0527941 -5.66495 0.106171 -4.07241 0.233894 -0.45692 0.046705
89 1 0.119259 8.64753 5.72486 -0.764907 -1.19115 -2.79876 0.224132 -4.15096 -0.427049 -0.7615 -0.0708515
90 1 1.48132 9.95083 7.16029 2.79551 -3.59303 -1.45637 0.0959395 -4.03232 0.32805 -0.273522 0.501288
91 1 2.91911 8.57617 5.7746 -0.722389 -2.83328 -4.07866 0.198302 -4.22474 0.171302 0.0919743 -0.481729
69 1 5.70286 11.3007 5.72656 -1.9053 -1.12008 -3.05077 0.31263 -4.01927 0.525986 1.47298 0.0339615
60 1 4.32913 10.018 4.3429 0.189597 -0.525148 1.72337 0.146528 -4.10391 -0.128913 -0.435213 -0.477883
62 1 7.08124 10.0483 4.35081 1.39088 -0.703308 0.861771 0.189289 -4.12249 0.65191 -0.700334 -0.765011
92 1 4.32374 10.0472 7.07745 -2.07936 2.60374 2.88129 0.336142 -4.01834 0.0194613 -0.606122 0.967703
93 1 5.62526 8.5695 5.762 1.78917 -0.79157 0.390193 0.359809 -4.15429 0.392121 -0.48578 -0.462849
94 1 7.11353 9.86922 7.04217 -2.13492 2.96439 0.124804 0.367795 -4.09377 0.215031 0.41927 1.18319
71 1 8.44484 11.3637 5.8288 0.94728 3.35788 4.09252 0.372893 -3.99706 0.598331 0.203648 -0.490976
64 1 9.87317 10.0251 4.36622 -0.0733203 -1.69159 0.98583 0.330196 -4.17222 0.00194178 -0.0677172 0.244284
95 1 8.47678 8.49919 5.6994 2.27093 2.33369 1.45138 0.167312 -4.07029 -0.062608 -0.0252236 -0.409943
96 1 9.85677 9.89589 7.08364 -1.16413 0.0111784 1.51313 0.525605 -4.12167 0.605808 0.0960994 0.596744
98 1 1.54415 1.58521 10.0016 -2.42022 -1.94863 0.858842 0.212148 -4.05265 -0.153492 -0.838226 -0.332346
107 1 3.00313 2.92739 8.53959 -2.569 1.38485 5.21107 0.121091 -3.99674 -0.491112 0.0987314 -0.00986881
13 1 5.84009 2.81792 11.3539 -0.569209 -3.47505 0.412987 0.281245 -4.05288 -0.937414 0.872212 0.80257
100 1 4.21869 1.54361 10.0064 -3.4499 -0.143545 0.24616 0.52066 -4.11954 0.615682 -0.404229 0.226325
102 1 7.12051 1.55743 9.9439 0.798439 1.08772 2.24216 0.318417 -4.03385 1.03876 -0.837218 -0.0777987
109 1 5.77197 2.84327 8.5745 1.56814 0.489258 -0.846809 0.262956 -4.08256 -0.768977 0.420797 -0.518445
7 1 8.49801 0.0992006 11.2874 1.13643 -3.26877 -0.640665 0.261297 -4.13909 0.710186 -0.488124 0.606304
105 1 11.3101 2.92787 8.56011 -2.71141 -0.238283 2.2905 0.241398 -4.08101 0.550205 0.0319463 -0.575919
103 1 8.59715 0.128664 8.54005 -0.555348 4.22698 -0.180102 0.176434 -4.13348 -0.675097 -0.372095 0.0317349
104 1 9.99435 1.44327 9.93095 -3.60527 3.78091 -2.4347 0.126184 -4.02132 0.0627978 0.300577 0.286434
111 1 8.55762 2.90069 8.4455 -3.94853 3.42362 0.658068 0.211904 -4.19493 0.448832 0.141233 0.922071
19 1 3.0144 5.81603 11.3701 -0.125753 1.33439 0.291656 0.292606 -4.09225 -0.935803 -0.914183 0.454122
106 1 1.44496 4.3462 9.91167 -0.418555 1.07964 -0.307057 0.123077 -4.06298 0.532772 -0.0931426 0.357163
113 1 0.139764 5.73054 8.4377 2.32052 1.01665 -1.16221 0.221414 -4.10715 -0.244388 -0.100947 0.607695
114 1 1.5315 7.10068 10.0135 -0.0179608 -0.247728 1.38873 0.184623 -4.05425 0.187132 0.0330336 0.0545803
115 1 2.88855 5.79896 8.51 -1.81061 3.97813 2.07526 0.200393 -4.09973 0.202564 -0.302538 0.255314
108 1 4.39266 4.33431 10.0269 -2.39738 -0.712838 -0.665321 0.143869 -4.13264 -0.479093 -0.294771 -0.755077
110 1 7.1469 4.32839 9.9282 0.858717 0.0347627 -0.623134 0.151873 -4.13346 0.107707 -0.0586333 0.420083
116 1 4.39305 7.03629 9.97137 -3.2104 -0.351575 -0.224907 0.429396 -4.03705 -0.28096 1.1729 -0.378379
117 1 5.7181 5.79632 8.52122 1.17077 1.38082 0.0773003 0.168798 -4.06541 0.0475304 -0.544674 -0.144358
118 1 7.08993 7.14225 9.97446 -2.68037 1.74992 -1.34631 0.0674045 -4.13637 0.513692 -0.438201 0.202064
112 1 9.9077 4.32894 10.03 -0.860524 1.11349 -0.0984754 0.226208 -4.07515 0.415527 0.139293 -0.236403
119 1 8.57653 5.63679 8.48985 -0.57915 3.11319 -0.939623 0.309041 -4.06259 0.12863 0.915948 0.501589
120 1 9.9565 7.10295 9.91418 1.7681 -2.58026 1.28527 0.189207 -4.13607 0.0151537 -0.456374 0.571548
25 1 0.122725 8.60611 11.3039 -1.5494 1.31351 -0.774233 0.21523 -4.10711 -0.481519 -0.334302 0.463694
97 1 0.10898 11.3389 8.55887 0.988901 0.505716 0.0109077 0.0510686 -4.06481 0.0323356 0.0764681 -0.0866512
99 1 3.02516 11.3063 8.53722 0.466132 0.393798 -0.353814 0.379926 -4.06784 -0.759317 0.759696 0.115854
121 1 0.159408 8.43389 8.67318 2.22095 0.528845 -0.832072 4.27905 -4.12453 -0.333918 0.950837 -1.0479
122 1 1.59651 9.9383 9.9932 0.708004 -2.09846 2.5702 0.125835 -4.04791 -0.353035 0.53608 0.238734
123 1 2.8923 8.57789 8.54876 2.72367 -2.0017 -2.712 0.0588609 -4.2191 0.444248 -0.447157 0.0406524
5 1 5.7158 11.3305 11.3709 -0.273886 -1.17338 1.32348 0.140879 -4.2126 0.203909 0.473997 -0.0902193
101 1 5.75641 11.3426 8.69259 1.17763 -4.45431 -2.58474 0.565927 -4.10372 -0.293916 0.664221 -1.36603
124 1 4.29292 9.98492 10.0577 1.97406 1.91696 -2.78374 0.13783 -3.9976 0.204655 -0.372593 -0.505167
125 1 5.75115 8.54258 8.50451 -2.9019 -0.0767364 -1.51563 0.135878 -4.11905 -0.729037 0.398828 0.340911
126 1 7.13614 9.96346 9.95075 0.563544 -2.01891 -2.83629 0.0791624 -4.00052 0.542476 -0.744745 0.286729
31 1 8.5957 8.5077 11.3728 2.50462 1.13645 1.64224 0.0758604 -4.05401 -0.173023 0.444277 0.171119
127 1 8.59972 8.50192 8.57522 -4.16289 1.84372 2.71376 0.167487 -4.03946 -0.465392 0.481827 -0.0442505
128 1 9.9582 9.9362 9.88524 0.501391 -5.31818 -4.76897 0.183389 -4.03285 0.175125 0.0978981 0.332072
