ITEM: TIMESTEP
2750
ITEM: NUMBER OF ATOMS
128
ITEM: BOX BOUNDS pp pp pp
9.0628341545765601e-02 1.1373371658454065e+01
9.3009928724717916e-02 1.1370990071275191e+01
8.2650032113405589e-02 1.1381349967886475e+01
ITEM: ATOMS id type x y z vx vy vz c_csym c_peratom fx fy fz
2 1 1.46004 1.37812 1.42395 -2.75177 2.93216 -1.80279 0.431944 -4.15006 0.370407 0.340117 0.588975
11 1 2.85839 2.99186 0.225395 -2.85198 4.17587 -0.0751431 0.551606 -4.03418 -0.389391 -0.855625 -1.20905
41 1 0.0989668 2.81325 2.92483 0.0676764 0.801986 1.68953 0.234295 -4.06764 -0.227754 0.24191 -0.290476
43 1 2.81571 2.9033 2.87484 -0.693834 -3.52012 1.14642 0.210546 -4.09028 0.0863098 0.0742417 -0.272207
4 1 4.25745 1.50418 1.37408 0.888163 -1.60749 2.24302 0.452372 -4.1294 0.262551 0.0415994 0.42715
6 1 7.16545 1.33014 1.45873 -2.59056 -0.0710971 0.371002 0.546351 -4.0469 0.56827 1.26089 -0.390327
37 1 5.80903 0.14533 2.88572 1.81 0.466035 2.6821 0.188723 -4.11556 -0.518737 -0.907547 -0.093493
45 1 5.72669 2.78456 2.71604 2.8652 1.43556 -1.866 0.560132 -4.08224 0.525027 1.00029 0.603304
9 1 11.4789 2.82344 0.0735424 3.91995 -0.0736682 -2.33069 0.311446 -3.99468 -0.892563 0.694998 0.551282
8 1 9.92546 1.49691 1.54184 -0.45066 0.205617 0.426635 0.156876 -4.05671 0.295728 -0.27327 -0.675096
15 1 8.58886 2.8658 0.0713316 -3.37281 2.36758 1.47103 0.0782873 -4.09122 -0.193002 0.158271 0.0839945
47 1 8.48523 2.93332 2.85984 -1.23969 0.547549 -1.28759 0.18156 -4.10412 0.548221 -0.58883 -0.0644046
10 1 1.47268 4.40751 1.50167 -2.93211 3.03928 -2.10512 0.311033 -4.15411 -0.552642 -0.956991 0.835638
17 1 0.0500375 5.71436 0.207964 4.26791 -1.82937 -3.37514 0.317153 -4.01872 0.181015 0.741306 -0.89765
18 1 1.54384 7.15289 1.43095 -0.379912 -2.70178 1.09497 0.294076 -4.09023 -0.343095 0.592081 1.10314
49 1 0.071511 5.79141 2.90783 -0.575031 -4.22531 0.360916 0.130813 -4.101 0.166092 0.0243293 0.322671
51 1 2.99826 5.76302 2.88207 -0.29756 -1.8311 -0.45145 0.123765 -4.14433 -0.143773 -0.16593 0.0280488
12 1 4.27629 4.24776 1.49571 -2.21581 0.681784 -2.21376 0.280665 -4.05186 0.949852 0.48487 0.549408
14 1 7.16085 4.32399 1.49132 -1.95964 -3.15774 -1.28942 0.106287 -4.04061 0.26978 0.0345324 -0.454114
20 1 4.3161 7.23262 1.47602 1.47605 -0.615368 0.856005 0.198394 -4.0855 -0.0899582 -0.531607 0.485217
21 1 5.66044 5.79604 0.168435 1.66245 -0.908591 -0.951473 0.276613 -4.15532 0.653686 -0.534302 -0.175602
22 1 7.22983 7.23736 1.48612 2.19589 0.587403 -0.0327103 0.323836 -4.06377 -0.771768 -0.537193 0.342433
53 1 5.76184 5.67899 2.84612 -1.95168 -0.585858 1.72548 0.135617 -4.09855 -0.195206 0.354071 0.0939043
16 1 9.95038 4.31953 1.45187 -0.66983 -2.74275 1.18786 0.0897893 -4.13655 0.073428 -0.46587 0.569323
23 1 8.52322 5.81073 0.120219 -0.58185 -2.12564 -2.79824 0.224379 -4.09434 0.156333 -0.140182 -0.220582
24 1 9.95782 7.1054 1.5713 0.424669 2.67533 -4.13537 0.11729 -4.12389 -0.203717 0.268491 -0.47354
55 1 8.54488 5.7286 2.90247 -2.63868 0.941748 1.26959 0.0810304 -4.16219 -0.0799339 -0.00463588 0.141676
1 1 0.133627 11.2335 0.0423951 -1.17726 -0.949196 0.661624 0.447474 -4.04183 -0.621894 0.889158 0.222234
3 1 2.88445 11.3359 -0.023952 -2.85379 3.08289 -1.86109 0.264671 -4.09705 0.116123 -0.0536081 0.107306
35 1 2.9533 11.4981 2.89673 -2.72573 -3.76163 -1.26708 0.232552 -4.04221 0.0718313 -0.613513 0.142206
26 1 1.52461 10.0966 1.57665 -2.5172 3.04683 -3.40858 4.95755 -4.07262 -0.0670204 -1.37259 -0.0906445
27 1 2.96223 8.56506 0.0807978 -3.64321 -1.285 -1.94685 0.159255 -4.09776 -0.411331 0.35651 -0.141618
59 1 2.99585 8.54826 2.9523 2.44177 5.62302 3.5839 0.177455 -4.06056 -0.386418 0.043864 -0.0552584
28 1 4.22738 9.99452 1.50586 -0.0289449 -3.13392 -0.583314 0.239082 -4.09925 0.310825 0.319683 0.00410351
29 1 5.72025 8.55813 0.171789 -0.625671 -1.25702 2.35311 0.295685 -4.14129 0.240073 0.421322 -0.627179
30 1 7.28483 9.87032 1.50277 2.05838 -0.936545 4.24669 0.548363 -4.03782 -1.0495 1.13831 0.195214
61 1 5.66385 8.64322 2.90552 -0.0998432 -1.7076 -2.86866 0.487154 -4.11481 0.966148 -0.875476 -0.828834
33 1 11.2323 11.3544 2.99081 -2.59799 0.0144295 -4.67234 0.349784 -4.12286 0.763372 0.487985 -0.412785
39 1 8.60971 11.3656 2.95049 3.40746 3.19169 -4.5149 0.0844797 -4.13318 -0.656916 -0.132791 -0.121016
57 1 11.2886 8.56886 2.95148 0.0999458 1.19627 3.69892 0.184795 -4.08873 0.749824 -0.101913 -0.0162304
32 1 9.98892 9.92904 1.5547 0.308619 0.391529 1.37512 0.121069 -4.08184 -0.406353 0.39633 -0.32175
63 1 8.56266 8.52191 2.92581 1.45291 -0.999942 -2.00827 0.0799811 -4.13234 0.300857 0.22217 0.343206
34 1 1.53205 1.51366 4.32551 1.03758 -0.075317 -0.00706508 0.14808 -4.10948 -0.0298526 -0.173826 0.125534
66 1 1.46737 1.48375 7.14783 0.825427 0.945221 1.48358 0.210879 -4.1362 0.376762 -0.120399 -0.126582
75 1 2.91497 2.8775 5.79419 -1.91821 1.81747 -0.12796 0.331172 -4.0952 -0.845413 0.841318 -1.10003
36 1 4.34419 1.61687 4.16371 2.24023 -0.348486 1.56354 0.560522 -4.06959 -0.301844 -0.573899 1.08194
38 1 7.14014 1.48753 4.29642 1.14438 -2.34406 2.58337 0.109185 -4.10095 0.60643 0.570969 -0.202318
68 1 4.26967 1.63425 7.10142 0.381663 -0.0720702 0.868989 0.394274 -3.95193 1.07617 -1.46002 1.19192
70 1 7.16789 1.57726 7.26545 -1.49624 0.19232 0.961895 0.429486 -4.05145 0.188464 -0.57293 -0.248431
77 1 5.77889 2.87226 5.80779 4.49032 -0.313898 -0.443256 0.317813 -4.13999 -0.236343 0.370631 -0.427835
73 1 11.3552 2.87046 5.76366 1.45698 -0.0798329 -3.45722 0.112881 -4.10495 -0.0123598 0.525385 -0.333076
40 1 9.83104 1.48327 4.40952 -0.670887 1.09239 -1.1771 0.351463 -4.07583 0.329975 0.422155 -0.415679
72 1 9.9396 1.55325 7.2129 3.21849 -0.390642 -1.65824 0.263931 -4.13199 0.349653 -0.49057 -0.311062
79 1 8.45118 2.90234 5.74118 2.07203 1.21809 -0.415857 0.205073 -4.07877 0.985111 0.441215 0.0886244
42 1 1.50123 4.30687 4.24087 0.925667 1.95241 0.371174 0.173659 -4.08328 -0.00876753 0.216704 0.694976
50 1 1.59048 7.1627 4.2784 -0.313648 -2.4638 3.10353 0.165898 -4.00403 -0.497698 -0.532298 0.0223126
74 1 1.46926 4.32938 7.03917 0.308223 -2.92488 -1.33675 0.284197 -4.07202 0.787049 0.0963032 0.149086
82 1 1.50867 7.16645 7.0028 -0.601026 2.49738 1.09905 0.398573 -4.00446 0.0715612 -0.28672 0.531202
83 1 2.93355 5.71446 5.70708 -1.89032 4.04477 0.451401 0.0538455 -4.13468 -0.0811874 0.303069 -0.0602023
44 1 4.27402 4.23525 4.35624 0.647992 0.830007 2.40464 4.39117 -4.06616 0.405921 -0.0586114 -0.666008
46 1 7.1474 4.24308 4.23135 -1.38965 -1.83201 -1.20917 0.147225 -4.04001 -0.699936 0.339347 0.405892
52 1 4.45051 7.09339 4.30078 2.56343 1.62305 -1.53783 0.249675 -4.10316 -0.736158 0.162122 0.121904
54 1 7.05552 7.20172 4.32086 2.54045 0.189255 2.86758 0.220724 -4.1195 0.57555 -0.624813 -0.281509
76 1 4.28822 4.40998 7.21551 -7.17156 -2.96509 -2.07868 0.242544 -4.05698 0.119484 -0.866104 -0.772781
78 1 7.15449 4.28811 7.13224 2.30703 2.8209 -0.849889 0.109813 -4.07903 -0.377147 0.54368 0.322194
84 1 4.34423 7.18323 7.11628 3.77203 0.626861 1.17738 0.209363 -4.12633 -0.203804 -0.537093 -0.274177
85 1 5.67134 5.61504 5.68677 -0.436679 2.26874 -1.26108 0.363247 -4.08222 0.486958 0.410578 0.351394
86 1 7.0241 7.05372 7.18758 -3.1185 0.0187341 3.41854 0.14302 -4.18405 0.435571 0.320293 -0.324017
81 1 11.32 5.68717 5.79698 1.82813 0.326269 0.0246887 0.338869 -4.06759 -0.0717079 0.948938 -0.8763
48 1 10.0302 4.32407 4.234 -2.10689 -2.65954 -0.930943 0.318292 -4.0434 -0.556539 -0.481916 0.382704
56 1 9.84198 7.1597 4.35196 4.60495 -1.34307 -3.28396 0.196916 -4.02587 0.703825 -0.260779 0.100764
80 1 9.99281 4.38106 7.24536 -0.112844 0.981006 -0.560664 0.297997 -4.09686 -0.525107 -0.322651 -0.50821
87 1 8.52257 5.72527 5.65714 -0.981389 0.250481 2.4329 0.16293 -4.089 -0.161929 -0.381684 0.398135
88 1 9.81267 7.16108 7.23923 2.64863 -2.28516 2.19677 0.530747 -4.07183 0.900673 -0.442316 -0.439396
65 1 0.0905384 11.424 5.60939 2.23093 -0.991993 0.112704 0.428359 -4.07581 -0.137848 0.231382 0.829477
67 1 3.01329 11.3692 5.81957 -0.167739 4.12649 -2.43922 0.574878 -4.04262 -0.223381 0.434252 -1.00307
58 1 1.53963 10.0268 4.30226 0.563394 -1.30101 -0.294658 0.111934 -4.1076 -0.0460972 -0.260661 0.175969
89 1 0.103524 8.48189 5.67022 0.615513 -0.68383 -1.39845 0.355807 -4.0689 -0.279736 0.192822 -0.0164763
90 1 1.42467 10.0174 7.02955 2.40685 0.154852 0.904303 0.528714 -4.12365 0.908135 -0.558105 0.0220412
91 1 2.99329 8.53711 5.69496 0.267668 -0.743669 0.274582 0.0902316 -4.10645 -0.208759 0.326673 -0.22593
69 1 5.78316 11.4574 5.59902 0.0443372 0.624131 0.934618 0.393383 -4.06852 -0.638686 -0.155972 1.68983
60 1 4.49493 10.047 4.26046 -0.232952 -0.980032 2.99975 0.36784 -4.02288 -1.90226 0.0229725 0.819182
62 1 7.16209 9.92692 4.41127 -2.43958 -1.66929 -3.62801 0.198923 -4.13912 0.148738 0.113847 -0.777354
92 1 4.31013 9.90914 7.11691 -3.90332 -2.48927 0.548611 0.0961097 -4.01277 0.417716 0.0634006 0.479651
93 1 5.71658 8.52548 5.69257 1.54229 0.45064 1.03817 0.0879977 -4.07635 0.0844226 0.60132 0.522766
94 1 7.13437 9.95503 7.1898 2.6877 1.38519 -2.05597 0.189841 -4.08563 -0.903869 -0.0585164 -0.261757
71 1 8.50501 11.3239 5.82475 0.298869 1.36944 -1.33334 0.199718 -4.11493 0.120402 0.426475 0.0562999
64 1 9.91775 10.0212 4.39977 -1.42245 -4.15405 0.943306 0.259204 -4.11501 -0.233022 -0.848208 0.0821483
95 1 8.49175 8.49767 5.8371 0.141046 4.06268 1.1229 0.162009 -4.05326 0.327428 0.45293 -0.251683
96 1 10.1348 9.95937 7.16599 0.963112 2.96872 -0.288938 0.518841 -4.18041 -0.889487 -0.217962 -0.408978
98 1 1.57568 1.58198 9.98793 -0.948604 -1.68257 -1.58818 0.241363 -4.16802 -0.21217 -0.869252 -0.400384
107 1 2.88578 2.98482 8.52998 -2.2829 2.19148 1.53582 0.101962 -4.15392 0.122037 -0.211043 -0.114665
13 1 5.89726 2.96395 11.3081 -3.66135 -2.13049 -2.0178 0.755564 -4.0788 -0.930856 -0.590095 0.704109
100 1 4.24208 1.55605 9.96342 4.5527 -2.40064 0.63592 0.180055 -4.10908 0.504762 -0.00904332 0.325976
102 1 7.15669 1.44306 10.0303 2.72215 1.83156 -1.86813 0.25972 -4.03886 0.126968 0.1801 -1.01986
109 1 5.68123 2.94856 8.59077 -0.360151 1.43725 -2.71448 0.0974706 -4.12748 0.514826 0.229502 0.0257058
7 1 8.55995 0.0753861 11.3156 0.0833033 0.0749941 1.72486 0.197061 -4.08902 0.67141 -0.554739 0.111095
105 1 11.5298 2.98042 8.46911 -1.88121 2.39558 4.13917 0.545927 -4.03879 -1.15632 -0.270734 0.810055
103 1 8.67178 0.00640157 8.52946 3.71674 0.110753 -0.47655 0.297026 -4.04435 -0.637473 0.610454 0.263883
104 1 10.0745 1.51522 9.92259 -0.852938 1.82367 2.23296 0.103722 -4.11183 -0.214993 0.101809 -0.118475
111 1 8.56776 3.03901 8.56762 -1.34 -1.16226 0.920688 0.259616 -4.01964 -0.251044 -0.759076 0.631272
19 1 2.90381 5.69261 11.5382 -1.57316 0.959528 -3.56073 0.321826 -4.08809 0.496606 0.381579 -1.25886
106 1 1.49393 4.29762 9.96942 3.43668 5.15453 1.9378 0.130953 -4.16445 0.201941 0.642237 0.591008
113 1 0.217923 5.76519 8.54422 -2.8248 -3.97235 -2.12281 0.458239 -4.09799 -0.381183 -0.12408 -0.249507
114 1 1.46797 7.06494 10.1281 0.591445 -1.67671 -1.61693 0.434786 -4.06425 0.1849 0.153581 -0.396766
115 1 2.9248 5.7845 8.52281 -2.37344 -2.34496 -0.958024 0.157939 -4.13936 -0.578568 -0.0908574 0.204195
108 1 4.29976 4.30543 10.0675 0.0089909 0.792858 3.75793 0.233391 -4.10572 -0.188771 0.180903 -0.146516
110 1 7.20864 4.40931 10.0154 0.955687 2.02494 2.91435 0.213104 -4.05228 -0.751863 -0.425082 0.0073299
116 1 4.30892 7.08243 10.0285 0.719838 -3.40933 2.36559 0.130759 -4.11696 -0.414316 0.371073 -0.162543
117 1 5.65009 5.72463 8.57777 1.54885 0.0212145 0.404436 0.142849 -4.12333 0.41889 -0.49185 0.267159
118 1 7.00832 7.11912 9.94743 -1.52611 2.27174 2.74218 0.204272 -4.11964 0.813182 0.345038 0.38334
112 1 10.0458 4.36615 10.0652 2.4518 1.49252 1.76559 0.24757 -4.15838 -0.206514 -0.163074 -0.859236
119 1 8.44048 5.72956 8.59997 1.76754 -0.371066 -0.334752 0.233582 -3.99528 0.923788 0.461852 -0.493421
120 1 10.036 7.14861 9.85318 1.84257 2.24549 2.41578 0.537022 -4.06505 -0.788416 -0.465141 1.00059
25 1 -9.98053e-05 8.51417 11.4492 0.61996 -0.0320565 1.30908 0.455722 -4.0608 0.689506 0.477314 -0.381036
97 1 0.206737 11.331 8.52582 1.0206 0.351279 -1.83992 0.219246 -4.05821 -0.461039 0.702294 0.487412
99 1 2.92349 11.369 8.55262 -4.34478 -1.84086 -1.80092 0.0998993 -4.14428 0.00103488 -0.098776 -0.427051
121 1 0.165753 8.44186 8.5195 0.376397 -3.11444 1.14831 0.453624 -4.11825 0.0536944 0.580023 0.0492957
122 1 1.52104 9.96946 9.92088 -1.59589 2.05948 3.32443 0.152831 -4.06627 -0.279992 -0.585818 0.39123
123 1 2.7796 8.50454 8.55351 1.32567 -0.130218 -0.244435 0.356366 -4.1294 0.666956 0.165648 -0.341662
5 1 5.65892 11.3431 11.4349 -2.96429 -2.32802 0.775581 0.246592 -4.07225 0.409432 -0.325881 -0.508413
101 1 5.70653 11.4044 8.55119 1.31355 0.208952 -2.05205 0.0647016 -4.03389 -0.161992 0.199337 -0.174625
124 1 4.32652 9.93138 9.89473 0.174836 3.53442 0.428099 0.214493 -4.08193 0.014585 0.0362533 0.341103
125 1 5.62332 8.4336 8.60677 -1.28494 -2.16494 -2.78989 0.298791 -4.04051 0.462774 0.854643 -0.248594
126 1 7.09086 9.93761 9.9076 0.921741 -0.17902 2.18712 0.16899 -4.07911 -0.243629 0.354352 0.497674
31 1 8.56365 8.5822 11.3646 -1.88525 -2.33737 -0.467791 0.159862 -4.10144 0.650426 -0.494729 -0.775647
127 1 8.4892 8.63906 8.5458 0.390393 -2.45623 0.0845116 0.272623 -4.05579 0.313152 -0.849336 0.288583
128 1 10.0644 9.9421 9.85068 -4.1671 -0.353024 -1.00845 0.281611 -4.06888 -0.403576 -0.217575 0.454573
