ITEM: TIMESTEP
3500
ITEM: NUMBER OF ATOMS
128
ITEM: BOX BOUNDS pp pp pp
9.6308788244155785e-02 1.1367691211755666e+01
1.0305336636353157e-01 1.1360946633636349e+01
8.2649989743281999e-02 1.1381350010256600e+01
ITEM: ATOMS id type x y z vx vy vz c_csym c_peratom fx fy fz
2 1 1.4865 1.53887 1.55825 -1.02148 -3.64879 2.66892 0.215678 -4.17989 -0.53582 -0.568972 0.286013
11 1 2.73536 2.8917 0.170128 1.96357 2.45863 -1.70009 0.572196 -4.09412 0.841326 0.651674 -0.708902
41 1 -0.0327325 2.89565 2.89183 0.716385 -3.00871 0.722495 0.326901 -4.05395 0.27433 0.0312826 -0.253176
43 1 2.92744 2.95721 2.85708 -0.208991 -0.166754 -1.78061 0.085374 -3.97922 0.234239 -0.395153 -0.0417716
4 1 4.34771 1.58639 1.40613 3.45084 -2.18129 -0.701349 0.251644 -4.14919 0.152859 -0.318312 0.476124
6 1 7.1897 1.50926 1.45452 3.12795 0.34889 0.0432891 0.0762322 -4.10164 0.233926 0.0365501 -0.228793
37 1 5.81209 0.0741838 2.82945 -1.7878 3.35889 -0.559148 0.257175 -4.13082 -0.949402 0.585207 0.412221
45 1 5.75684 2.91812 2.95635 -0.694784 -1.29934 -1.25331 0.255355 -4.07778 0.107234 0.113802 -0.454198
9 1 11.3742 2.95074 0.0713576 -1.08206 -2.48089 -1.97596 0.0709777 -4.13886 -0.14953 -0.172629 0.14343
8 1 9.93856 1.39381 1.51265 -2.7786 -2.64261 -0.403655 0.273409 -4.11965 0.0566334 0.780497 -0.284328
15 1 8.71804 2.9055 -0.0673537 2.17373 4.03602 1.1982 4.49745 -4.10809 -0.132829 -0.289065 0.73594
47 1 8.56369 2.92694 2.88317 1.93655 -2.4219 -0.454236 0.113735 -4.09755 0.227284 -0.426606 0.496336
10 1 1.46746 4.32013 1.56849 -3.48676 1.22211 1.18745 0.206391 -4.17945 0.447976 0.339187 -0.221205
17 1 0.137253 5.77011 0.171084 0.395612 -2.68853 0.108092 0.215448 -4.08353 -0.427218 0.171961 -0.370237
18 1 1.4943 7.14451 1.50826 0.915687 3.37219 1.84028 0.133599 -4.10679 0.147855 0.753343 0.237031
49 1 0.0767092 5.76865 2.87674 0.521196 2.68056 2.51375 0.0997602 -4.04505 -0.378414 -0.115192 0.101436
51 1 2.95625 5.82687 2.80193 3.30975 -2.28495 -1.95397 0.354772 -4.0139 -0.348216 -0.98335 0.673838
12 1 4.31739 4.32127 1.42465 0.927236 0.863848 -1.10028 0.120726 -4.09623 0.266362 -0.139407 0.569197
14 1 7.37321 4.22824 1.36249 1.09664 0.365721 0.886801 5.09487 -4.0272 -1.26666 0.502344 0.46847
20 1 4.32718 7.21943 1.57372 1.29624 1.74122 2.16822 0.262 -4.10344 0.173926 0.265295 -0.871098
21 1 5.77531 5.68405 0.0768938 -0.09975 2.44272 -4.51265 0.196394 -4.10192 -0.540836 0.247149 0.767746
22 1 7.18992 7.17437 1.47088 1.88815 3.25194 -0.900007 0.0748389 -4.0556 -0.3811 -0.355256 0.457094
53 1 5.84049 5.78681 2.86392 -1.8159 -2.96466 0.833961 0.209349 -4.03864 -0.281959 -0.9391 -0.247315
16 1 10.0065 4.31032 1.4379 3.88138 1.92293 1.51389 0.118629 -4.07852 -0.374089 0.39572 0.340002
23 1 8.57772 5.79872 0.0491195 -4.96933 0.506316 -2.0715 0.287138 -4.13514 0.32898 -0.142856 0.121788
24 1 9.85365 7.31009 1.51996 -5.23494 2.24417 0.497511 0.551391 -4.04962 1.22318 -1.07966 0.0600795
55 1 8.56659 5.7534 2.89778 -1.45938 -1.7346 -2.22582 0.117554 -4.11441 0.147156 -0.362914 -0.177565
1 1 0.162267 11.3998 0.118363 0.360613 1.22345 3.3656 0.165051 -4.0833 -0.220841 -0.285913 0.23712
3 1 2.84679 11.418 0.0562027 1.13981 1.15698 -0.798944 0.146756 -4.13768 0.148872 -0.427436 0.33039
35 1 2.99095 11.4762 2.84097 0.265172 -2.12716 0.546467 0.447161 -3.99185 -0.562379 -0.791062 0.0105296
26 1 1.50169 9.93845 1.61129 -4.30003 2.2132 -2.51931 0.269262 -4.12124 0.0711315 0.0107996 -0.802805
27 1 2.88657 8.60069 0.0580111 0.444658 -1.42031 0.361614 0.10425 -4.0109 -0.408694 -0.639842 0.501895
59 1 2.91663 8.5537 3.08154 -1.93123 1.80334 0.580014 0.527465 -4.00791 -0.0818285 0.0692322 -1.04896
28 1 4.25296 9.95751 1.40592 1.34872 -0.601997 -0.719509 0.338091 -4.06647 -0.0448453 0.172698 0.801557
29 1 5.7414 8.56636 0.132254 -0.564854 0.663245 -0.304805 0.173561 -4.23617 0.273468 0.0999823 -0.630855
30 1 7.15436 10.0665 1.44568 3.65254 -0.492903 1.59802 0.307227 -3.99291 1.0465 -0.926276 -0.371444
61 1 5.82159 8.70218 2.80237 -5.36842 -1.72831 -0.653697 0.648371 -4.11648 -0.528865 -0.662613 0.754139
33 1 11.3089 11.2927 2.95215 -0.0770712 1.96136 -0.125058 0.203492 -4.06447 0.166861 0.524526 0.0303226
39 1 8.54081 11.3356 2.89441 -0.0770335 -0.361258 0.838775 0.0977149 -4.09848 0.0578693 -0.102279 0.709866
57 1 11.3225 8.63684 2.99705 -3.0762 -6.69279 0.906466 0.219146 -4.10598 0.2635 -0.78358 -0.146336
32 1 9.97487 10.001 1.51986 -3.17579 0.593733 1.46783 0.128552 -4.13358 -0.195016 -0.569462 -0.639782
63 1 8.56899 8.61518 2.97031 -3.31797 -0.99644 1.04422 0.144607 -4.14034 -0.800021 0.376029 -0.359664
34 1 1.43913 1.56692 4.26169 2.03237 -0.0437885 3.67302 0.23574 -4.18281 0.552296 -0.122617 0.383085
66 1 1.4204 1.51445 7.13998 -2.69515 -1.93162 2.35208 0.153655 -4.04908 0.346266 0.170428 0.18965
75 1 2.98519 2.93792 5.82501 -0.454602 -2.12909 -0.199278 0.480083 -4.0488 -0.707684 -1.0891 -1.57401
36 1 4.29118 1.45917 4.29997 0.0855722 0.742118 0.146178 0.278714 -4.08117 0.320528 0.765033 0.399356
38 1 7.16242 1.47602 4.28358 2.10219 3.46311 2.68601 0.114938 -4.08457 0.107674 0.181383 0.266747
68 1 4.41576 1.64928 7.12413 2.24088 -2.66099 -0.0218853 0.576277 -4.0058 -0.174029 -1.1296 0.699457
70 1 7.11509 1.55688 7.21967 1.04197 -0.256721 -1.44361 0.119386 -4.11761 -0.0574371 -0.341965 0.13011
77 1 5.82992 2.93451 5.7102 -2.24735 -3.59809 -0.759732 0.225109 -4.15317 -0.493136 0.266273 -0.297079
73 1 11.3152 2.87641 5.81028 -3.66202 -3.66407 -0.259486 0.196496 -4.10356 0.244351 0.245571 -0.419591
40 1 9.97844 1.48499 4.39389 -1.21947 -0.175034 -0.893365 0.102091 -4.15768 -0.281128 0.0502945 -0.570386
72 1 9.91924 1.48891 7.22134 -0.845575 -0.0817969 -1.62828 0.209095 -4.09098 0.489414 0.587965 0.137591
79 1 8.60578 2.89771 5.75831 4.82916 7.37283 3.27459 0.0649283 -4.14899 -0.595196 0.164834 0.147525
42 1 1.52285 4.25555 4.25703 -2.4576 3.99741 1.50096 0.211486 -4.17205 0.000667107 0.300796 0.28448
50 1 1.52103 7.05091 4.26197 -2.18202 -0.601244 -1.14019 0.3132 -4.07458 0.0202825 0.32082 0.211991
74 1 1.54418 4.2506 7.06672 0.222173 -1.51476 -3.78601 0.306524 -4.10929 -0.352248 0.674811 0.293794
82 1 1.53742 7.04021 7.13079 -0.909434 1.28233 0.281904 0.073994 -4.02316 -0.118357 -0.171826 0.0708829
83 1 2.91721 5.71015 5.80494 0.182591 4.5865 0.10283 0.25623 -4.09585 0.292079 -0.081251 -1.0662
44 1 4.29255 4.31188 4.22667 -0.0455803 -1.40223 3.62452 0.321391 -4.06856 -0.0367665 0.312655 0.56811
46 1 7.21314 4.34018 4.31107 -1.66694 -3.52797 -3.21275 0.108981 -3.99917 -0.222466 -0.238678 -0.396978
52 1 4.37686 7.13091 4.27653 -0.470587 -1.00541 2.69148 0.129822 -4.11737 0.215197 -0.0905475 0.335006
54 1 7.14016 7.16434 4.28186 -0.722156 1.98992 2.04242 0.0412569 -4.15043 -0.0508449 -0.0119345 0.415621
76 1 4.25627 4.27642 7.1556 -2.652 0.219798 2.06659 0.180821 -4.02405 1.06922 0.509302 0.24294
78 1 7.16411 4.29335 7.2533 2.94857 -0.129787 0.210549 0.194418 -4.06732 0.0092118 -0.0279427 -0.116204
84 1 4.31599 7.0921 7.12144 -1.42207 1.53144 -0.523966 0.122129 -4.11666 0.250317 0.32188 0.088265
85 1 5.75373 5.61225 5.73792 -1.05642 -0.743235 -1.33972 0.260936 -4.11919 -0.0703313 0.179273 -0.0560689
86 1 7.05212 7.16001 7.09686 -0.438288 1.29323 0.611383 0.278052 -4.1307 0.208726 -0.166859 0.668133
81 1 11.461 5.66277 5.71902 1.69008 0.407568 3.31087 0.19267 -4.06592 -0.758967 0.452396 -0.279001
48 1 9.96064 4.23037 4.3703 -4.01127 -2.17256 -0.545354 0.19864 -4.08565 0.137193 0.909592 -0.315131
56 1 9.90037 7.16392 4.23637 3.45795 2.06257 1.99239 0.305433 -4.01131 0.154797 -0.4873 1.21149
80 1 10.0643 4.38848 7.15386 -0.153285 2.04315 -0.138511 0.235218 -4.09111 -1.06147 -0.658919 -0.0706384
87 1 8.448 5.65083 5.78495 -2.42292 0.956953 -1.06719 0.335059 -4.07533 0.63923 0.487316 -0.536202
88 1 9.8699 7.03039 7.09143 0.791996 0.309706 -2.26155 0.300243 -4.03813 0.74767 0.789929 -0.356934
65 1 0.0839353 11.388 5.75318 0.358331 -0.137743 -4.18266 0.0807298 -4.14491 -0.186859 -0.288499 0.386859
67 1 2.8085 11.4056 5.82134 1.7317 4.3489 -0.584881 0.524684 -4.05934 0.559034 0.107571 -0.438781
58 1 1.50469 10.062 4.32315 0.122522 -0.192817 2.62743 0.305391 -4.13756 0.302709 -0.262511 0.187988
89 1 0.140234 8.45415 5.76752 -0.378663 -0.69481 -2.37365 0.267616 -4.14134 -0.338856 0.23817 -0.550508
90 1 1.48571 9.87877 7.04664 -4.07933 -2.12938 -3.58603 0.126363 -4.02504 0.218904 0.290879 0.500162
91 1 2.87765 8.49317 5.72535 -1.76798 -1.83835 0.56022 0.114401 -4.1487 -0.304461 -0.160312 -0.308883
69 1 5.70715 11.4382 5.69727 0.326287 -3.54588 -1.13621 0.243729 -4.01996 -0.108822 0.213607 0.115097
60 1 4.28033 9.9751 4.36342 2.85407 0.462754 3.58197 0.177567 -4.17281 0.38009 0.238802 -0.203608
62 1 7.09408 9.9756 4.46612 4.54133 -0.919469 -7.16662 0.543449 -4.15347 0.435456 0.328652 -0.784843
92 1 4.2962 9.88192 6.98798 -1.66685 3.50272 -2.72749 4.98301 -4.08237 0.3331 0.328181 1.0651
93 1 5.73254 8.51116 5.68817 -1.0007 2.35031 0.603194 0.120866 -3.99698 -0.643498 -0.39891 -0.281541
94 1 6.97133 9.95457 7.04135 -2.15429 3.66408 4.51403 4.74173 -4.14744 0.8712 0.291742 1.19191
71 1 8.56293 11.452 5.82399 -0.282248 1.37315 1.52773 0.293535 -4.07269 -0.542343 -0.435257 -0.319432
64 1 9.94086 9.98271 4.46484 0.596849 2.42582 -0.183671 0.267752 -4.11254 -0.127824 -0.14025 -0.491699
95 1 8.45249 8.53769 5.74368 1.38654 1.51094 2.6743 0.087001 -4.03578 0.536546 -0.211678 0.104813
96 1 9.841 9.94205 7.15761 0.83826 -1.50243 4.60284 0.29903 -4.09039 0.721365 -0.251964 -0.427369
98 1 1.49214 1.50458 9.99915 -1.4044 0.323336 -2.12331 0.125074 -4.06582 -0.400207 0.0892165 -0.567593
107 1 2.82236 2.9512 8.5726 2.17775 -2.61653 0.0458247 0.201371 -4.21543 0.452767 -0.414417 0.0568377
13 1 5.85024 2.86387 11.378 2.34298 -0.071178 -0.107972 0.232635 -4.02483 -0.305553 0.417069 -0.109903
100 1 4.21514 1.58193 10.0862 1.01439 0.177026 -4.39644 0.361273 -4.05811 0.433532 -0.119808 -0.575265
102 1 7.20961 1.55221 9.9265 0.404637 -0.33651 -0.130097 0.177847 -4.07691 -0.872249 -0.645141 0.628006
109 1 5.65215 3.01966 8.6455 1.11378 2.20716 3.30957 0.331714 -4.0897 0.38228 -0.568773 -0.123633
7 1 8.59819 0.0569552 11.2839 1.9535 -1.62891 -3.12348 0.150727 -4.10828 -0.273075 0.21645 0.182643
105 1 11.4403 3.04453 8.5418 -0.987564 1.14409 1.25796 0.34276 -4.10542 -0.481323 -0.8673 0.491633
103 1 8.59102 0.0666343 8.55934 -2.00018 -0.959233 -1.54802 0.0750894 -4.08888 -0.680048 -0.063839 0.132642
104 1 10.0878 1.42257 9.93881 1.72431 3.21646 -0.627002 0.354969 -4.06918 -0.246097 0.234872 -0.279401
111 1 8.54321 2.95829 8.69393 -0.394807 -1.45081 1.90317 4.4815 -4.04446 1.04192 0.226173 -1.34686
19 1 2.96845 5.79938 11.3446 1.32507 -0.327819 1.18538 0.243616 -4.06399 -0.476812 -0.0491492 0.796202
106 1 1.53246 4.43541 10.0084 0.956538 1.80235 -0.918802 0.271142 -4.08153 -0.541644 -0.578119 0.468083
113 1 0.164304 5.70614 8.48908 -0.135238 -3.46248 1.53591 0.126839 -4.1491 0.189366 0.490042 0.433512
114 1 1.56928 7.15252 9.98908 3.45989 -2.22225 -0.515334 0.154197 -4.08552 -0.446266 0.0896258 -0.28507
115 1 2.97594 5.59134 8.62416 -2.67301 2.11633 -3.73976 0.375802 -4.19871 -0.118651 1.13597 -0.759411
108 1 4.25477 4.25701 10.1242 0.815818 1.11521 1.84282 0.497243 -4.10507 0.395537 -0.0921078 -0.406387
110 1 7.20757 4.35741 10.0187 -2.33323 -2.8551 0.218576 0.140233 -4.14319 -0.36992 -0.0226892 -0.0474778
116 1 4.3502 7.16457 9.96072 1.99243 -1.81555 -0.313748 0.159916 -4.08519 -1.04169 -0.573144 0.838323
117 1 5.62311 5.68429 8.63262 1.18987 -0.243142 -0.379994 0.211006 -4.14676 0.484288 -0.264863 -0.551009
118 1 7.01489 7.02577 9.98154 0.684353 0.234002 -1.61099 0.427039 -4.02545 1.30547 0.749339 -0.413538
112 1 10.0258 4.44594 9.97003 -0.450302 -1.26599 -1.19921 0.273032 -4.09349 -0.193942 -0.218316 -0.259724
119 1 8.56222 5.77762 8.51413 0.88373 0.309532 0.27159 0.107286 -4.08676 -0.630782 -0.408544 0.63769
120 1 10.0611 7.14376 9.85615 0.770327 -4.06242 3.33288 0.340491 -4.08516 -0.356662 -0.105692 0.649591
25 1 0.0670133 8.54441 11.348 0.768224 -0.557569 1.93053 0.173104 -4.01463 0.369563 -0.0722321 0.497979
97 1 0.120087 11.2177 8.48111 1.90286 -0.861878 -0.972303 0.426655 -4.11153 -0.362475 0.894616 -0.254333
99 1 2.84931 11.4147 8.51034 -1.35283 -0.701728 -0.546891 0.135794 -4.08445 0.596014 -0.340705 -0.0187975
121 1 0.0950013 8.48736 8.41911 2.59299 -1.33919 1.41424 0.294314 -4.14528 0.0135384 0.158177 0.39086
122 1 1.40048 10.0158 9.9523 -0.804033 0.164512 -0.915239 0.23624 -4.06642 1.05981 -1.12391 0.29187
123 1 2.83513 8.46319 8.42822 1.09086 -0.689766 2.10918 0.285673 -4.08896 0.469861 0.797075 0.890633
5 1 5.71682 11.2726 11.3554 -1.16678 -2.77464 1.65801 0.29445 -4.17406 0.0302104 0.436074 -0.433464
101 1 5.6899 11.3244 8.69947 -1.5468 0.298573 -1.28014 0.671133 -3.96054 -0.199377 0.274257 -0.676247
124 1 4.20885 9.89804 9.98877 0.41489 -2.13988 -4.30687 0.199316 -3.99996 0.27745 0.314999 -0.575113
125 1 5.70203 8.46177 8.67115 0.920412 -3.26932 1.85573 0.54479 -4.01464 0.367943 1.29617 -1.24681
126 1 7.25316 9.88447 9.90211 0.44761 0.681025 -1.25018 0.392066 -3.93843 -1.49786 0.829966 1.06811
31 1 8.49526 8.45655 11.3381 2.81302 2.43093 -2.72868 0.336468 -4.11379 0.158307 0.982017 -0.437493
127 1 8.55804 8.58695 8.6148 1.32669 2.69866 0.72506 0.409656 -4.03808 0.228069 -1.40588 -1.34903
128 1 10.0121 9.87627 9.97844 0.561596 2.94741 -2.13739 0.200968 -4.15194 0.024987 0.691952 -0.0372679
