ITEM: TIMESTEP
8000
ITEM: NUMBER OF ATOMS
128
ITEM: BOX BOUNDS pp pp pp
8.5364737974477300e-02 1.1378635262025224e+01
9.4211454278701368e-02 1.1369788545721100e+01
8.2649735522540430e-02 1.1381350264477341e+01
ITEM: ATOMS id type x y z vx vy vz c_csym c_peratom fx fy fz
2 1 1.60735 1.54968 1.53781 -1.08404 2.13577 1.02718 0.347684 -4.0493 -0.619063 0.200077 -0.610605
11 1 2.89866 2.94681 -0.00224511 -1.09571 1.87992 -2.79478 0.3891 -4.13152 0.0844637 -0.134519 0.504512
41 1 0.173208 2.94653 2.91258 -2.48404 -2.54448 -0.666793 0.200761 -4.03999 -0.209318 -0.704244 -0.31603
43 1 2.83493 2.98463 2.94096 -3.68342 -3.03608 -2.68277 0.233009 -4.08884 0.547794 0.0479939 0.0650692
4 1 4.4148 1.62833 1.52361 0.574129 0.411333 -3.02241 0.350096 -4.15866 -0.797933 -0.74409 0.123135
6 1 7.13015 1.49391 1.54046 0.249001 2.23941 -1.27043 0.114692 -4.23501 0.233775 -0.0951374 -0.508007
37 1 5.71939 0.0582381 2.99132 1.46917 1.56166 0.810598 0.382444 -4.02794 -0.274045 0.179431 -0.252259
45 1 5.78345 3.01072 2.92545 3.64905 -2.32975 -3.32284 0.157035 -4.10595 -0.145722 -0.0374062 -0.214526
9 1 11.2878 2.91831 -0.0257687 1.75248 1.96731 -4.07472 0.414688 -4.06797 0.965375 -0.552062 0.183267
8 1 9.93456 1.59107 1.45544 -3.51359 -2.25963 3.06878 0.165911 -4.08481 -0.0247428 -0.312566 0.536378
15 1 8.4885 2.91687 -0.0001689 2.03074 -1.5301 0.115063 0.139971 -4.04573 0.429014 -0.370738 0.527988
47 1 8.48625 2.98235 2.95692 0.986498 -3.66694 0.363071 0.33136 -4.08313 0.44427 -0.251935 -0.0284686
10 1 1.41921 4.28204 1.37988 1.62613 2.98148 4.10065 0.325246 -4.10513 0.603236 -0.292317 0.927934
17 1 0.199592 5.76865 0.124088 -2.30878 -3.8677 5.00948 0.346232 -4.05494 -1.36519 0.210027 -1.23834
18 1 1.48323 7.11339 1.56752 -2.49803 1.55335 0.229772 0.0795982 -4.06268 0.0698934 0.0743383 -0.628367
49 1 0.0884993 5.72797 2.91342 0.396919 -1.69452 -1.4324 0.0824185 -4.1908 0.438004 -0.370629 -0.376762
51 1 2.87115 5.64053 2.90805 -1.95628 -2.07213 -0.173443 0.2044 -4.12026 -0.207004 0.338524 0.1702
12 1 4.32133 4.27506 1.51368 -2.12564 1.6395 -0.975205 0.128923 -4.09814 0.105424 0.547599 -0.253098
14 1 7.23863 4.31156 1.49133 -1.83662 -0.551059 -0.625315 0.171852 -4.10808 -0.87545 0.491837 -0.12296
20 1 4.3001 7.09057 1.5539 2.5943 0.110102 0.199708 0.190183 -4.05726 -0.16572 0.188123 -0.371496
21 1 5.74581 5.82564 0.0952711 -0.0973681 -2.58816 0.592883 0.181885 -4.05574 0.259341 -0.701233 0.102094
22 1 7.23174 7.20232 1.44701 0.338062 -1.38049 -3.85583 0.207096 -4.00993 -0.968857 -0.98592 0.0701983
53 1 5.7746 5.75105 2.99427 3.30452 -1.10186 0.60491 0.232313 -4.07931 -0.115203 -0.328779 -1.17699
16 1 10.0013 4.28267 1.48162 0.544319 -0.580331 -0.812378 0.121292 -4.18591 -0.0306527 -0.0711388 -0.0814412
23 1 8.639 5.68577 0.10819 0.781125 2.28872 3.20429 0.158563 -4.11208 -0.326497 0.473927 -0.344594
24 1 10.0449 7.03012 1.50717 2.72801 0.360106 2.23148 0.220189 -4.09881 -0.248596 0.55369 -0.038663
55 1 8.59939 5.73357 2.90609 2.13091 -1.35528 2.12241 0.0786167 -4.14739 -0.135673 -0.366361 0.136553
1 1 0.100629 11.427 0.0929535 3.4577 -4.52406 -1.17068 0.126126 -4.14264 -0.00420416 -0.356623 0.0670317
3 1 2.94948 11.3662 0.124653 0.146008 -0.683491 1.33535 0.0408788 -4.10609 0.0257576 -0.429818 0.310233
35 1 2.80559 11.3873 2.97134 1.68337 1.93464 -0.986362 5.28599 -4.06244 0.890483 -0.108345 -0.392354
26 1 1.57699 9.94418 1.48252 -0.355418 0.636339 -2.81508 0.214417 -4.00249 -0.655708 0.34773 0.116306
27 1 2.90443 8.59495 0.0671162 -5.28991 2.85426 -1.8681 0.14255 -4.14115 0.376758 -0.6706 0.713013
59 1 2.82919 8.51974 2.83528 1.36953 2.31484 1.9324 0.256447 -4.0749 0.480059 0.278482 0.751921
28 1 4.33513 10.017 1.51433 0.860072 3.5554 0.194526 0.15203 -4.12468 -0.308724 -0.484479 0.28705
29 1 5.65774 8.48709 0.0307546 0.0649257 -2.92805 -1.40493 0.400077 -4.10085 0.954346 0.430471 0.948831
30 1 7.1379 10.0803 1.50911 -2.71478 -0.141964 -2.15302 0.422365 -4.17961 0.284344 -0.820122 0.179567
61 1 5.77567 8.58775 2.81725 1.63732 1.64751 2.6397 0.128451 -4.12511 -0.0491049 -0.323363 0.201077
33 1 11.4671 11.3837 2.8853 3.30208 -0.524223 3.37321 0.119117 -4.11071 -0.450477 -0.234158 -0.336421
39 1 8.66013 11.4714 2.94382 -0.329122 -2.2037 -1.06145 0.463222 -3.99465 -0.70567 -0.22046 -0.754263
57 1 11.3894 8.52788 3.01387 -1.23504 0.435604 4.7647 0.245782 -4.14145 -0.200068 0.459042 -0.961679
32 1 9.88468 9.94526 1.47493 -4.39863 -0.647664 3.04762 0.369123 -4.03599 1.0831 0.599635 0.712516
63 1 8.58628 8.48008 2.7767 -2.36709 3.4087 -3.21176 0.270055 -4.0836 0.491225 0.331589 1.16696
34 1 1.53137 1.54234 4.33053 -1.98536 0.463319 0.61464 0.177871 -4.11211 -0.482215 -0.129719 0.858121
66 1 1.59825 1.50711 7.1608 1.87987 0.593463 -1.49922 0.278507 -4.12068 -0.182327 -0.403607 0.0620327
75 1 2.91206 3.00078 5.70304 -1.60986 -0.450707 -2.5121 0.156278 -4.0936 0.128383 -0.267322 -0.0117888
36 1 4.30097 1.59075 4.3046 -1.93449 -1.13103 -2.26834 0.19955 -4.1071 -0.527278 -0.875756 -0.417715
38 1 7.07125 1.52628 4.20834 1.27804 -2.66003 -0.513802 0.351982 -4.08477 0.580135 -0.385566 0.872791
68 1 4.25361 1.52324 7.18365 -1.13202 -0.70676 -1.76906 0.125122 -4.13981 0.205142 0.0368235 -0.299229
70 1 7.03358 1.51496 7.12866 -0.99768 -0.670553 2.45186 0.167012 -4.03309 -0.0214435 -0.0986135 0.268525
77 1 5.67986 2.86927 5.61694 -0.0644486 2.00795 0.570922 0.332844 -4.07759 0.627759 0.581719 1.18151
73 1 11.3712 2.86353 5.95092 0.680509 -3.26749 -0.0161312 0.838657 -4.05151 0.584526 0.602617 -1.69996
40 1 10.0147 1.52334 4.30364 0.509967 -2.54286 0.370943 0.161585 -4.09932 0.137696 0.133522 0.295785
72 1 10.0421 1.42064 7.12311 -2.20873 1.89971 -0.343191 0.298816 -4.0198 -1.27927 0.285355 1.00441
79 1 8.54716 2.8902 5.69817 -0.126844 -0.690099 -0.639321 0.0490278 -4.12371 0.0957164 0.0620121 0.352755
42 1 1.39684 4.37634 4.37344 -3.53409 2.75856 -0.208953 0.339972 -4.08501 0.788702 -1.11836 -0.358581
50 1 1.41575 7.10557 4.36466 -1.6489 1.44078 -2.74105 0.148098 -4.12271 0.759852 0.012286 -0.233672
74 1 1.57361 4.2629 7.16317 1.90036 0.836992 2.13025 0.31789 -4.05315 -0.887201 0.611914 0.104791
82 1 1.5887 7.11734 7.20651 -2.16844 2.1883 -0.818136 0.344282 -4.07764 -0.58473 0.138965 -0.559241
83 1 2.93517 5.65566 5.6807 -0.108394 -1.19229 -3.80866 0.282131 -4.09634 -0.0122973 0.494114 0.110485
44 1 4.37287 4.35323 4.29965 4.96622 -0.468112 -1.0696 0.16913 -4.12825 -0.100296 -0.114561 0.132041
46 1 7.10213 4.33164 4.37983 -0.385809 1.17004 0.0542561 0.161573 -4.06209 0.341085 0.182272 0.121185
52 1 4.3098 7.2245 4.23469 -0.978929 1.39843 -0.866865 0.306192 -4.09058 -0.0683224 -0.735431 0.358954
54 1 7.1474 7.1205 4.2535 1.25044 1.80338 2.01383 0.115168 -4.04816 0.508767 0.140353 0.544129
76 1 4.33369 4.34341 7.14691 -1.49523 -0.421426 -2.26342 0.150963 -4.16723 -0.0730776 -0.393904 0.0157135
78 1 6.9974 4.35799 7.1975 -2.74458 -2.69876 -2.80703 0.316685 -4.07894 0.580136 -0.162238 -0.124816
84 1 4.239 7.16643 7.1621 0.734689 0.284269 0.867369 5.38352 -4.10288 0.529432 -0.0621404 -0.285617
85 1 5.69632 5.75618 5.80764 -2.08878 -2.90145 0.485759 0.131287 -4.07552 -0.0558778 0.406448 -0.805453
86 1 7.10576 7.13232 7.20228 -1.14625 -1.34937 1.18977 0.172966 -4.09385 0.13497 -0.0318863 -0.444028
81 1 11.3143 5.67353 5.65422 2.67333 -1.37174 3.29561 0.408274 -4.07199 0.424491 0.93603 2.03966
48 1 10.1013 4.24838 4.28102 1.38779 -4.4837 -0.825743 0.469086 -4.10374 -1.01356 -0.000508616 0.0934078
56 1 10.0296 7.03144 4.28785 2.05559 -2.01532 4.98845 0.239384 -4.07171 -0.997147 1.15413 -0.0624145
80 1 9.98113 4.29946 7.16515 1.05359 -2.18878 -0.0350658 0.161266 -3.9906 -0.272359 0.130145 0.208379
87 1 8.66131 5.70619 5.73119 0.589404 -3.97678 1.54468 0.304453 -4.11539 -0.953839 -0.160733 0.0279765
88 1 9.85792 7.25151 7.05154 -0.905555 -2.90636 2.27552 0.434279 -3.96337 1.45287 -1.29345 1.6326
65 1 0.0370108 11.3504 5.77404 1.13584 2.28506 -0.137667 0.175688 -4.05049 0.839907 -0.127475 -0.817857
67 1 2.98508 11.3139 5.75815 -0.630555 2.21241 -1.51507 0.199251 -4.03792 -0.483779 0.702564 -0.801492
58 1 1.51307 9.94737 4.39251 -2.7836 0.750629 -2.2237 0.163415 -4.11188 -0.0421961 -0.0183175 -0.145485
89 1 0.0157523 8.53358 5.72737 -1.92357 -1.67636 -0.873934 0.13191 -4.08322 0.399557 0.12958 0.0540262
90 1 1.54113 9.95235 7.16718 0.828186 -0.534392 1.2005 0.0547979 -4.14331 -0.170392 0.0123803 -0.185611
91 1 2.87143 8.43484 5.68971 0.904355 -0.226778 3.39634 0.26368 -4.00502 0.0150468 0.701096 0.101345
69 1 5.64791 11.2389 5.71939 -0.698926 -0.0633776 -0.194974 0.354204 -4.1095 0.600853 0.802542 -0.489743
60 1 4.24517 9.8904 4.24545 4.31723 -0.657426 1.36671 0.195765 -4.11159 0.177184 -0.0104007 0.137221
62 1 7.26077 9.89674 4.19821 0.864394 -0.0773596 -2.9523 0.527261 -4.10001 -0.334889 0.476207 0.264249
92 1 4.2611 9.92316 7.08199 -0.604749 2.51371 -0.0649775 0.21605 -4.05012 0.230673 -0.979169 0.243591
93 1 5.83185 8.55774 5.55394 0.239963 2.25045 0.530678 0.49401 -4.07178 -0.863721 0.103725 1.14005
94 1 7.17636 9.89768 7.03163 -2.39007 -0.688864 -0.908765 0.315811 -4.02444 -0.380287 0.306287 0.984798
71 1 8.49011 11.4204 5.78227 -2.31164 1.7852 -0.0491143 0.436598 -4.12892 0.109972 0.0462452 -0.669889
64 1 9.91904 10.015 4.23936 0.97424 1.50884 -1.75827 0.28877 -4.03948 0.187509 -0.536801 1.0227
95 1 8.51305 8.48558 5.75942 -2.71963 0.245916 0.245313 0.270946 -4.05411 0.00933346 0.88509 -1.60348
96 1 9.96698 10.0024 7.13524 1.14078 -2.81796 -2.63901 0.060467 -4.12863 -0.131264 -0.226973 -0.0901932
98 1 1.65254 1.35154 9.97889 -0.441372 -2.83547 1.22938 0.834873 -3.95536 -1.58522 1.53712 0.32032
107 1 2.89594 2.98943 8.66328 3.72391 -0.378808 0.536201 0.362395 -4.15051 0.141611 -0.404624 -0.293081
13 1 5.80377 2.97863 11.3925 -4.70242 -2.92583 -1.1232 0.167035 -4.00782 -0.16307 -0.300273 -0.145818
100 1 4.29577 1.4696 9.99455 -2.97557 -0.502713 0.916054 0.127492 -4.15095 0.729574 0.0734033 0.22557
102 1 7.10698 1.45042 9.88126 2.0596 -0.0767181 -0.54036 0.163485 -4.16468 -0.199509 -0.0112975 0.515321
109 1 5.60102 2.88013 8.60518 5.08481 1.87393 2.568 0.229803 -4.01109 0.521508 0.297228 -0.0368631
7 1 8.5662 -0.0306984 11.349 1.86888 -1.30871 2.22627 0.499446 -3.98745 0.328672 1.4607 0.328149
105 1 11.3913 2.82403 8.6094 4.22393 3.97858 1.01928 0.124564 -4.169 0.168426 0.229666 -0.0348407
103 1 8.59227 0.0850448 8.50951 2.64033 -5.3475 0.410834 0.0977059 -4.11297 -0.530047 0.161584 -0.331044
104 1 9.85794 1.49749 9.97294 3.27602 0.159148 0.46028 0.230501 -4.08142 -0.0448078 0.0121361 -0.193181
111 1 8.50633 2.93842 8.45874 1.42024 0.107775 -3.27595 0.24929 -4.09533 0.521894 -0.293275 0.215799
19 1 2.83244 5.69817 11.37 -2.4825 -0.400211 0.916132 0.181133 -4.14177 0.694313 0.304212 0.272018
106 1 1.46499 4.33067 10.0085 1.22931 1.66598 5.397 0.142608 -4.03039 -0.278969 0.208694 -0.611616
113 1 0.0138735 5.82721 8.55031 -1.33205 3.75465 1.00973 0.226285 -4.02889 0.28358 -0.659933 -0.0550935
114 1 1.56741 7.16758 9.92838 0.107253 -0.616896 -0.787539 0.216642 -4.10644 -0.543571 0.216434 0.285391
115 1 2.86367 5.66492 8.57945 -3.19812 1.81567 1.10492 0.223728 -4.11852 0.597758 0.151878 0.200068
108 1 4.40655 4.3483 10.0716 1.02975 3.11824 -0.0635355 0.446054 -4.08884 -0.491134 0.0797424 -0.472337
110 1 7.17689 4.28247 9.96572 -1.14535 -0.579316 -0.0306451 0.197365 -4.13668 -0.589836 0.795183 -0.698248
116 1 4.24615 7.17647 9.98571 -1.96683 2.6102 -0.393456 0.131313 -4.10226 0.169081 -0.533615 -0.149732
117 1 5.64347 5.7805 8.56159 4.34941 1.63845 -1.03065 0.166379 -4.07375 0.217219 -0.13036 0.589086
118 1 7.17084 7.16971 9.93912 -2.86901 4.41748 -1.96799 0.0788895 -4.06912 0.113326 -0.191763 0.153296
112 1 9.92815 4.32734 9.91444 1.36119 2.4968 -3.93169 0.129887 -4.07491 0.0796324 0.185494 0.457668
119 1 8.57581 5.80269 8.58834 -0.717495 0.905179 -4.9506 0.157327 -4.09061 -0.107356 -0.223045 -0.50029
120 1 9.9321 7.28051 9.99498 0.911668 3.42474 2.21903 0.266071 -4.02316 0.650157 -0.790496 -0.227935
25 1 0.0968426 8.59633 11.4689 3.37779 -0.547555 -0.502241 0.234891 -4.12099 -0.0799363 -0.192618 -0.469131
97 1 0.0912054 11.3822 8.6471 -1.13457 -0.319959 0.181436 0.237545 -4.16695 0.256784 0.0259844 -0.629455
99 1 2.95626 11.3288 8.63982 0.142197 0.576276 0.641919 0.121002 -4.11877 0.461743 -0.629708 -0.734161
121 1 0.0917827 8.62434 8.50457 1.10538 1.71095 1.60948 0.0887665 -4.08494 -0.131638 -0.532582 0.166079
122 1 1.51936 9.875 9.99441 0.923289 4.82663 1.08731 0.252002 -4.10187 -0.219786 0.70663 -0.0233882
123 1 2.98781 8.61971 8.62284 0.294345 -2.51358 -2.3611 0.289979 -4.11199 -0.487119 -0.155165 -0.187328
5 1 5.71686 11.3266 11.4564 -0.950212 -1.62419 -0.464067 0.221125 -3.96578 -0.0855152 0.750007 -0.836447
101 1 5.62324 11.2269 8.46879 1.20197 -2.48484 3.3581 0.539618 -4.08691 0.631658 0.605358 0.20262
124 1 4.38024 9.92259 10.0577 -1.94685 1.60175 1.66268 0.219659 -4.12757 -0.682624 0.643328 -0.462852
125 1 5.68644 8.54952 8.60724 -0.819971 1.03578 2.54271 0.118901 -4.12454 0.296134 0.136919 -0.546398
126 1 7.12593 10.0561 9.98999 -0.185016 0.0758105 4.9465 0.354762 -4.09265 0.0117636 -1.16995 -0.21816
31 1 8.63604 8.52864 11.4481 -0.434836 -0.30282 -3.51422 0.343587 -4.06284 -1.00311 0.447981 -0.742551
127 1 8.59092 8.61571 8.51776 -0.416467 2.56471 -1.58445 0.0893398 -4.13958 -0.379661 -0.0599495 0.18432
128 1 9.94441 10.0155 9.90186 -0.953104 -0.859174 -1.37855 0.214662 -4.11123 0.313096 -0.477976 0.562775
