ITEM: TIMESTEP
19000
ITEM: NUMBER OF ATOMS
128
ITEM: BOX BOUNDS pp pp pp
9.0551641760082902e-02 1.1373448358239624e+01
8.7119962352868008e-02 1.1376880037646938e+01
8.2649114094061060e-02 1.1381350885905821e+01
ITEM: ATOMS id type x y z vx vy vz c_csym c_peratom fx fy fz
2 1 1.46586 1.43281 1.53688 0.981803 4.42026 -0.986192 0.334458 -4.11636 0.340271 0.96919 -0.621861
11 1 2.97704 2.71725 0.0969204 0.125981 -1.75821 -1.55409 0.63232 -4.11485 -0.330451 1.12633 0.097797
41 1 0.0869872 2.99814 2.83425 -1.69986 1.13426 2.86129 0.241349 -4.0328 0.145647 -0.350232 0.40998
43 1 2.90376 2.96729 2.91085 -0.327365 -3.84097 1.29405 0.179758 -4.09398 0.100903 -0.182496 0.237635
4 1 4.28953 1.49466 1.60116 1.34964 0.50027 -1.02264 0.191967 -4.02524 0.311125 -0.225122 -0.466814
6 1 7.08132 1.48792 1.47908 2.5396 -2.219 4.14653 0.148945 -4.11629 0.625335 0.0731574 0.302033
37 1 5.76794 0.071516 2.90453 -0.92417 1.49517 -1.31109 0.255275 -4.18846 -0.269267 -0.0297957 0.517052
45 1 5.74393 2.91935 2.95977 1.70303 0.91808 0.570741 0.121095 -4.17428 -0.591955 0.219097 -0.510693
9 1 11.4205 2.95478 -0.0795983 3.70626 -0.255155 2.24566 4.70555 -4.05127 -0.893654 -0.635701 1.29211
8 1 9.98436 1.4572 1.50775 -1.61781 2.15979 -2.67631 0.193048 -4.05557 0.0382227 0.0306117 -0.0785228
15 1 8.63003 2.89686 0.198798 -1.14961 1.94002 4.84288 0.48616 -4.06269 -0.147777 -0.195236 -0.482707
47 1 8.52681 3.00898 2.85006 2.36192 1.60653 0.358808 0.241071 -4.08469 0.651433 -0.135528 0.131725
10 1 1.48426 4.24632 1.42042 -2.30529 -2.66427 0.350769 0.181312 -4.07271 0.269529 0.750411 -0.394707
17 1 -0.0311751 5.80668 -0.0822747 3.68714 0.220656 1.99469 4.77233 -4.10468 1.12598 -0.928482 0.482039
18 1 1.53006 7.03759 1.32596 0.342407 0.420458 -0.888982 0.410826 -4.06722 -0.103001 0.347849 0.92662
49 1 0.077435 5.79663 2.79038 1.474 -0.109244 2.40881 0.211535 -4.08142 0.115362 -0.0618613 0.386706
51 1 2.86354 5.6834 2.90377 -1.33242 2.95798 1.47951 0.102987 -4.10224 0.175712 0.246154 0.324983
12 1 4.37273 4.3899 1.45036 3.62513 -0.633243 2.40113 0.301829 -4.08125 -0.640174 -0.412939 0.115533
14 1 7.17035 4.34548 1.47964 0.0400126 -2.99252 -0.947379 0.102146 -4.12163 -0.51089 0.233439 -0.00503158
20 1 4.22848 7.1085 1.47575 0.961799 -2.13731 -0.803361 0.192137 -4.09571 0.859755 -0.178872 -0.0298838
21 1 5.67582 5.7675 0.0529106 3.70226 -0.0597384 0.0500519 0.20215 -4.07018 0.557078 0.0384081 0.339004
22 1 7.14712 7.15577 1.59922 -1.60213 0.480177 1.50028 0.17111 -4.01623 -0.0126494 -0.227479 -0.429718
53 1 5.67916 5.72207 2.91995 0.264879 -4.58578 0.77725 0.100008 -4.09443 0.263581 0.00749109 0.255233
16 1 10.049 4.4101 1.39761 -1.40382 -2.00044 0.261525 0.232741 -4.07014 -0.0857163 -0.701727 0.655676
23 1 8.63303 5.73603 0.115987 -2.97923 1.10913 3.47617 0.198361 -4.11363 -0.80595 0.516089 -0.150744
24 1 10.0618 7.23349 1.29906 1.60125 -1.91009 -4.26126 0.461345 -3.9961 -1.14779 -0.191512 1.41049
55 1 8.62806 5.72437 2.91696 -0.124054 -1.74426 -2.06205 0.136802 -4.06968 0.111339 0.110191 -0.226163
1 1 0.168373 11.3744 0.00144882 1.07262 -0.163364 3.20112 0.317802 -4.15036 -0.778511 -0.326213 0.318306
3 1 2.81228 11.356 0.0381945 1.45682 -1.04954 0.760609 0.250467 -4.17046 0.667709 0.239909 0.321785
35 1 2.95568 11.4127 2.93463 -1.79277 -0.0818572 -2.55535 0.172696 -4.10096 -0.273354 -0.39096 0.0267612
26 1 1.5476 9.97422 1.59452 5.14587 -0.421511 -2.90468 0.380171 -4.11249 0.0546905 0.3462 -0.819089
27 1 2.90505 8.55648 0.155379 -2.87525 -4.05222 -0.656752 0.254657 -4.09293 -0.0513986 -0.0252234 -0.609747
59 1 3.03194 8.49983 2.89803 -5.00791 -0.616838 1.99223 5.14635 -4.07871 -1.37648 0.263713 0.324871
28 1 4.2751 10.0059 1.46785 -0.180996 0.546549 -2.55169 0.216701 -4.06273 0.200938 0.0236707 0.107848
29 1 5.75281 8.47929 0.200782 0.824502 -2.15908 -4.62353 0.317085 -4.05336 -0.376201 0.344973 -0.793379
30 1 7.11285 9.93073 1.48829 2.03735 -2.11635 3.44638 0.13594 -4.06641 0.317785 -0.10087 -0.27995
61 1 5.62472 8.64231 2.96785 2.33263 -0.178768 0.613737 0.239494 -4.19892 0.0343092 -0.643447 -0.372079
33 1 11.4492 11.406 2.88663 -0.684728 3.29541 -3.29153 0.100057 -3.9659 -1.01724 -0.664574 0.571929
39 1 8.43455 11.2473 2.92936 -0.322581 -0.000258538 -3.07078 0.696717 -4.10381 0.487145 0.829921 0.0234142
57 1 11.4192 8.55231 2.73923 2.47093 -0.563669 -4.28635 0.39686 -4.00516 -0.60957 -0.281807 0.608002
32 1 9.92547 10.051 1.37746 1.64546 -3.83639 0.662402 0.296824 -4.10273 0.675613 0.0137092 0.736658
63 1 8.57224 8.56096 2.87737 0.91107 -2.25335 -3.39822 0.0718593 -4.11449 0.13988 0.101954 0.0918283
34 1 1.51914 1.48955 4.33822 -1.46209 1.00837 0.036023 0.103164 -4.21567 -0.640831 0.581453 -0.779392
66 1 1.55348 1.46707 7.03211 1.06878 -0.899293 -1.12957 0.505139 -4.06771 -1.23717 0.79182 1.16015
75 1 2.89004 2.93117 5.69391 -0.0506908 4.09016 4.85986 0.177691 -4.11645 -0.112697 0.00534545 0.33103
36 1 4.31881 1.42654 4.41978 0.913879 1.51187 -0.479232 0.368644 -4.14713 0.162163 0.306673 -0.446955
38 1 7.2032 1.66064 4.27803 3.43846 -0.368757 0.834042 0.584531 -4.07443 -0.0828816 -1.05966 0.185595
68 1 4.32181 1.50241 7.09657 0.211011 0.398748 0.604977 0.105038 -4.15632 0.0131716 0.04723 -0.0903581
70 1 7.1898 1.49833 7.02613 -0.421548 1.29275 1.29228 0.230455 -4.0872 -0.432467 -0.0638082 0.566759
77 1 5.75585 2.95937 5.62694 1.10359 1.40071 -1.4873 0.227084 -4.06189 0.356757 -0.404086 1.22455
73 1 11.3549 2.86866 5.77432 -0.195562 3.83678 -1.40751 0.160598 -4.06555 0.128973 -0.0925766 -0.189146
40 1 9.96216 1.55558 4.19478 4.07396 -1.51084 -0.48233 0.336712 -4.07556 -0.0871152 -0.291828 0.36079
72 1 9.91035 1.50613 7.23585 -4.03514 3.17546 -3.10308 0.147641 -4.06493 -0.100056 -0.0241615 -0.576083
79 1 8.60674 2.93244 5.73803 1.97348 -1.45593 -0.604172 0.0957097 -4.08714 0.154824 0.0210094 -0.215324
42 1 1.40267 4.41146 4.32953 0.512061 -0.0765927 -1.13622 0.319022 -4.11022 0.199694 -0.394405 -0.0310432
50 1 1.44285 7.19242 4.36742 1.15306 2.37072 -1.8301 0.273807 -4.05803 0.284184 -0.138367 -0.223186
74 1 1.50717 4.16261 7.16421 4.93907 1.82172 0.879203 0.290789 -4.08626 -0.314797 0.673653 -0.0367255
82 1 1.5417 7.12351 7.21974 -1.40288 -1.69642 2.16359 0.0683878 -4.0797 -0.0708274 0.241873 -0.541587
83 1 2.86036 5.66713 5.81513 1.21286 -1.25827 1.96485 0.135521 -4.10115 0.264245 0.515534 -0.339738
44 1 4.2858 4.27061 4.41561 -0.618049 1.1978 0.41982 0.223959 -4.02782 0.0582013 0.845539 -0.958464
46 1 7.162 4.28004 4.31285 0.0782811 1.56618 -1.23737 0.081309 -4.12087 0.230816 1.04954 -0.0785287
52 1 4.25776 7.11474 4.38324 -3.03396 -1.73983 -1.35045 0.147889 -4.0238 0.466464 -0.138347 0.173279
54 1 7.14629 7.20764 4.34757 -0.596328 -0.193971 1.16926 0.046782 -4.0694 -0.17203 -0.250194 0.0357364
76 1 4.36891 4.29491 7.17165 3.30611 0.927432 1.01757 0.107927 -4.0459 0.0557038 -0.229551 -0.380593
78 1 7.29687 4.37853 7.07379 0.00256394 2.76084 0.705065 0.499787 -4.05786 -1.44981 -1.03905 -0.348727
84 1 4.40323 7.16505 7.25087 -1.70074 -0.820512 -1.35641 0.229706 -4.0662 -0.110946 -0.562734 -0.589302
85 1 5.76172 5.69916 5.74576 -5.47313 0.932517 -0.764921 0.0399392 -4.07977 -0.282274 0.0753028 0.0397729
86 1 7.14975 7.11612 7.06795 0.133757 -0.268756 -5.19899 0.219793 -4.14065 0.142823 0.361113 0.265999
81 1 11.4193 5.68951 5.93437 -0.629027 0.734816 0.408953 0.530677 -4.03581 -0.0503441 0.0721356 -0.873269
48 1 10.0821 4.34921 4.39716 -4.03605 -4.66566 2.50079 0.316392 -4.11328 -0.552427 -0.104079 -0.354754
56 1 9.98422 7.13839 4.33685 2.4218 -3.00997 2.31033 0.139432 -4.06255 0.302342 0.304299 0.154233
80 1 10.0075 4.26999 7.25787 0.118607 -1.64762 0.0424649 0.193316 -4.13633 -0.343014 0.16738 -0.648341
87 1 8.59803 5.77303 5.71521 -3.50669 -2.43032 2.82882 0.0876251 -4.05042 0.0783637 -0.322236 -0.174763
88 1 9.95825 7.10082 7.1203 -3.84767 0.13398 -1.33282 0.129034 -4.17545 0.031791 0.34726 0.215401
65 1 0.0283797 11.4025 5.74246 -2.00395 2.10998 0.948802 0.167641 -4.09809 -0.373601 0.0588872 -0.0140141
67 1 2.77378 11.384 5.69621 -0.0698156 -1.42653 -3.19782 0.237606 -4.02026 1.03492 -0.53809 0.259734
58 1 1.47973 10.0224 4.29689 -0.761142 -1.53017 1.04816 0.134886 -4.20592 0.0340404 -0.67851 0.0972697
89 1 0.0903131 8.5764 5.79419 0.832625 1.64414 4.32406 0.099151 -4.03643 -0.0814919 -0.112505 -0.197338
90 1 1.3718 10.0354 7.13278 0.580057 -1.21624 1.98144 0.256335 -4.11881 1.06072 -0.274437 0.205992
91 1 2.96174 8.63925 5.7827 -0.97954 -0.843831 -0.0601577 0.279432 -4.02956 -1.04107 -1.20969 0.817853
69 1 5.79996 11.2899 5.68144 -2.56715 2.50229 3.25671 0.660683 -4.05747 -0.683999 1.2046 0.878262
60 1 4.18891 9.99304 4.44594 1.79826 1.71199 -0.144105 0.654539 -4.06989 0.961766 0.512933 -1.29138
62 1 7.00187 9.92244 4.35153 -1.40816 0.683311 -0.108695 0.358014 -3.92936 1.45698 -0.725219 -0.878487
92 1 4.1868 10.1423 7.22812 3.01704 0.716141 1.34896 0.798865 -4.12527 0.912341 -0.550947 -0.139005
93 1 5.68538 8.62591 5.81487 -2.5046 -0.364133 -2.20212 0.106705 -4.15068 -0.206914 -0.14999 -0.0612354
94 1 7.15278 9.9722 7.26162 -2.48104 1.91944 0.322851 0.346735 -4.07576 -0.224052 0.0455105 -0.511562
71 1 8.51566 11.3197 5.62611 -1.27222 1.11907 -0.558087 0.36864 -4.13214 0.444153 0.265627 0.423502
64 1 10.0454 9.95918 4.28242 0.33209 0.161717 3.91093 0.280279 -4.05427 0.0826912 -0.233546 -0.297625
95 1 8.54444 8.69592 5.77076 3.26558 1.81222 1.40362 0.471607 -4.13299 -0.257797 -0.935492 -0.595255
96 1 9.92138 9.89935 7.18907 1.66648 0.444691 -0.624858 0.179838 -4.10776 0.353922 0.757927 0.247622
98 1 1.48562 1.49861 10.0028 0.713242 3.10428 2.83196 0.159828 -3.97671 0.0327288 0.267032 -0.297581
107 1 2.83375 2.86503 8.56992 -1.02104 2.58683 -0.61044 0.241988 -4.13915 0.96025 -0.0668834 0.270324
13 1 5.69874 2.90841 11.4868 0.13281 1.3411 -2.52045 0.213301 -4.08925 0.119316 -0.0803466 -0.629312
100 1 4.36819 1.46992 9.99151 3.47217 -0.716651 1.15099 0.181719 -4.05371 0.102748 0.0479237 -0.302708
102 1 7.1336 1.54623 9.9924 -1.30236 1.35542 -3.14013 0.0988445 -4.137 -0.0184166 -0.176334 0.283607
109 1 5.75809 2.95171 8.53536 1.01984 -4.31596 -0.799012 0.100161 -4.03596 0.135658 -0.0423791 0.0676889
7 1 8.50972 0.103525 11.326 -0.83331 -3.04793 2.63304 0.0836758 -4.08708 -0.185222 -0.130275 0.406625
105 1 11.3733 2.87425 8.64754 0.922591 1.36492 0.080855 5.1003 -4.14436 0.189975 -0.126283 -0.570582
103 1 8.52796 0.0758922 8.59749 -4.19496 -4.11928 -1.52026 0.0565731 -4.09621 -0.301421 -0.139379 -0.744845
104 1 9.86109 1.43109 9.91097 -3.65104 0.313891 -4.60943 0.328455 -4.07815 0.393164 0.700797 0.8389
111 1 8.40167 2.93622 8.58234 -2.20886 2.01339 -2.10215 0.549665 -4.07985 0.781159 -0.341046 -0.079872
19 1 2.95314 5.72909 11.3165 2.02861 0.400661 0.349147 0.0639638 -4.01449 -0.118895 -0.144904 0.502146
106 1 1.6204 4.29461 10.0215 -1.17749 1.41806 -3.01415 0.504364 -4.07877 -0.268138 0.381115 -0.381545
113 1 0.16002 5.70055 8.61343 -0.0449556 0.840442 -2.47776 0.211451 -4.13565 -0.40287 -0.572441 -0.71285
114 1 1.54333 7.04436 9.87173 -1.88753 -2.79987 -1.87037 0.288747 -4.11172 0.736523 0.942047 0.771991
115 1 2.96951 5.63141 8.4563 -0.10091 -2.18761 1.35871 0.396122 -4.10978 -0.324015 0.474349 0.393003
108 1 4.31021 4.37892 9.97945 1.71392 -0.209777 0.169273 0.310268 -4.1134 0.236532 -0.944046 -0.0440398
110 1 7.20862 4.25689 10.1639 -0.738397 -2.8801 -0.242896 0.688059 -4.12672 -0.410241 0.30964 -0.628838
116 1 4.31486 7.10596 9.93881 -2.81943 4.04487 -4.40954 0.129131 -4.20029 -0.164514 0.278646 0.0901674
117 1 5.90174 5.67668 8.6407 -1.42538 -2.08453 1.917 0.457108 -4.11375 -0.706131 0.0714957 -0.516359
118 1 7.16999 7.08612 10.0198 0.436318 -3.12123 0.457275 0.136331 -4.07562 0.173337 0.633682 -0.0518952
112 1 9.83433 4.31844 9.92794 -2.07766 1.77257 -0.0232952 0.494046 -4.13926 0.573662 -0.153002 0.0892186
119 1 8.52152 5.6705 8.506 -0.346075 -1.11096 0.239098 0.250119 -4.10329 0.277183 0.567729 0.676922
120 1 9.909 7.08491 9.80572 -0.100559 1.84387 2.70875 0.471843 -4.1096 0.244179 0.671508 0.642678
25 1 0.140086 8.57796 11.3019 1.52031 0.21147 -1.91028 0.113729 -4.13475 0.0198307 -0.223646 -0.0630381
97 1 0.056628 11.372 8.58091 -0.862131 2.71942 0.729082 0.0905542 -4.14721 0.377152 0.18464 -0.0443414
99 1 2.82733 11.546 8.58588 0.734519 1.04242 -2.25936 0.518691 -4.05595 0.301412 -1.24664 0.0347485
121 1 0.129897 8.529 8.53977 2.7942 2.63555 -4.36646 0.142858 -4.1164 -0.326201 -0.0667868 0.055966
122 1 1.47948 9.92898 9.96324 -0.634802 0.0784029 0.226605 0.136994 -4.02793 0.761795 0.143227 -0.596026
123 1 2.94838 8.54434 8.50054 -1.80802 0.879008 1.1902 0.189621 -4.01311 -0.658972 0.353766 0.183482
5 1 5.73485 11.3645 11.4437 -2.66353 -2.25394 0.816136 0.0904859 -4.11177 -0.22945 -0.129669 -0.398541
101 1 5.78593 11.4561 8.59015 -2.32268 -1.24537 -0.229756 0.248209 -4.02456 -0.250285 -0.225532 -0.103485
124 1 4.25666 9.92884 9.96571 0.28376 -0.977802 0.695964 0.164428 -4.05366 0.607928 0.375436 -0.0275823
125 1 5.75293 8.57459 8.5793 0.0424579 -0.716105 2.42546 0.0855491 -4.04274 0.0729676 -0.129106 -0.0938185
126 1 7.16626 9.98653 9.92763 2.16496 6.13723 0.767254 0.135909 -4.11228 -0.412634 -0.283826 0.676408
31 1 8.61604 8.62456 11.3514 0.546031 -1.7247 -1.35173 0.268407 -4.05962 -1.03044 -1.02978 0.368203
127 1 8.54143 8.481 8.49923 1.20725 0.523993 4.9085 0.082002 -4.0726 -0.404429 0.28338 0.200394
128 1 9.92008 9.88831 9.96225 -0.642535 1.5205 1.1707 0.179114 -4.14693 0.504046 0.894364 -0.791496
