ITEM: TIMESTEP
5750
ITEM: NUMBER OF ATOMS
128
ITEM: BOX BOUNDS pp pp pp
9.8184001310936964e-02 1.1365815998688802e+01
9.0023069600504435e-02 1.1373976930399282e+01
8.2649862632911214e-02 1.1381350137366971e+01
ITEM: ATOMS id type x y z vx vy vz c_csym c_peratom fx fy fz
2 1 1.49102 1.47876 1.54174 1.39827 -0.972877 0.474243 0.1233 -4.13504 0.334611 -0.350088 -0.61665
11 1 2.88418 2.86239 0.141636 -0.0321815 0.634593 -2.00926 0.116712 -4.01553 -0.0641641 0.325479 0.369141
41 1 0.138583 2.87072 2.84272 -1.51879 1.561 2.5006 0.147891 -4.10338 -0.256064 0.473824 0.52101
43 1 2.92947 3.05825 2.84408 -3.56559 -0.586611 0.149856 0.358642 -4.0415 -0.428872 -1.12169 0.647519
4 1 4.3277 1.53933 1.5739 -0.711284 -0.145893 -0.337649 0.227397 -4.1223 -0.0700137 0.131703 -0.899686
6 1 7.17865 1.4183 1.51413 -1.55446 -2.16006 -0.347523 0.25722 -4.07196 -0.0204956 0.626171 0.194744
37 1 5.67907 0.0982176 2.90455 2.18676 1.76918 -2.03509 0.130374 -4.08519 0.551225 -0.40719 0.0315668
45 1 5.76156 2.93347 2.84043 -0.577112 -2.07233 2.0482 0.147499 -4.07244 -0.0520898 -0.160335 0.51027
9 1 11.2827 2.85952 0.0671316 -1.45785 -4.9588 2.826 0.308077 -4.05918 0.815876 0.148354 0.319137
8 1 9.95412 1.52513 1.43896 2.68112 -0.104031 -1.19023 0.0931827 -4.11516 -0.158146 -0.524356 0.369437
15 1 8.56932 2.83036 -0.0553526 2.85897 -0.643877 -1.73 0.328934 -4.12185 -0.314493 -0.284157 0.704684
47 1 8.67122 3.00166 2.87916 0.16429 2.50285 1.02274 0.404669 -4.09074 -0.69354 -1.05944 -0.57395
10 1 1.50379 4.3569 1.50505 2.88105 1.48538 -2.70279 0.0971175 -4.14206 -0.351376 -0.252412 -0.422627
17 1 0.100486 5.75835 0.035804 -1.50711 1.59831 -1.41978 0.234986 -4.14754 -0.393397 -0.298725 0.74311
18 1 1.40561 7.14028 1.58437 -0.208889 0.998207 2.64281 0.251954 -4.08918 0.591449 -0.390734 -0.0561264
49 1 0.0326439 5.76633 2.90541 1.38025 2.11851 -0.766091 0.175018 -4.12781 0.306632 -0.0671897 0.331046
51 1 2.90183 5.67112 2.86646 -0.29447 -1.18943 3.34663 0.259918 -4.10745 -0.0539879 0.722068 0.467531
12 1 4.38024 4.32438 1.51649 2.3823 -0.697933 0.0991344 0.113035 -4.10155 0.0275652 -0.132325 -0.483083
14 1 7.18476 4.15795 1.42676 -2.67357 -3.01064 -3.47649 0.504347 -4.00272 0.783825 1.08155 0.130003
20 1 4.22422 7.15287 1.61966 2.54141 -2.66471 1.89108 4.81241 -3.99208 0.814704 -0.010205 -0.842714
21 1 5.73725 5.64742 0.0224918 2.59703 -1.28528 -0.62961 0.238601 -4.06287 -0.287306 0.735618 0.358857
22 1 7.21131 7.1267 1.49677 1.16792 -0.463974 -0.0672277 0.0974009 -4.04287 0.28958 0.215348 -0.279787
53 1 5.86412 5.78095 2.78889 -0.458254 0.783556 0.531764 0.5298 -4.07289 -0.599278 -1.19205 0.923619
16 1 10.0406 4.35685 1.44234 -3.06127 1.84859 -0.202822 0.169138 -4.08639 -0.180391 -0.544154 0.317355
23 1 8.72561 5.7357 0.123832 0.962818 -1.39461 2.23403 0.514112 -4.05133 -1.52696 0.0681153 -0.0169858
24 1 9.94662 7.2806 1.53272 -0.406996 -1.87539 -3.11619 0.510235 -4.11717 -0.0370475 -0.800808 0.212347
55 1 8.6825 5.67093 3.00942 -0.361407 -1.01007 -0.642213 4.97795 -4.06494 -1.2474 0.922733 -0.947733
1 1 0.072802 11.3409 0.0295517 2.07772 -0.752975 1.73197 0.134474 -4.0503 0.459687 0.259259 0.667702
3 1 2.89603 11.2413 0.129119 -1.01724 0.958918 -1.54617 0.318484 -3.99887 0.319206 0.821373 -0.246532
35 1 3.01579 11.4425 2.96492 -1.28007 -0.534846 -1.37785 0.309175 -4.04553 -1.02923 -0.751638 -0.479014
26 1 1.51414 10.0245 1.55235 0.113084 2.29867 0.44941 0.224383 -4.11519 -0.46111 -0.213841 0.174619
27 1 2.85419 8.5004 0.161168 -4.84572 -0.523281 -2.69619 0.138883 -4.12877 0.223234 0.186498 -0.205112
59 1 2.82438 8.55556 2.91445 1.83205 2.2323 -2.55098 0.227678 -4.15809 0.0986649 -0.0367243 0.30907
28 1 4.25245 9.92776 1.5983 -2.69802 2.36641 -1.51584 0.174872 -4.07605 0.32639 0.378719 -0.660095
29 1 5.77535 8.50463 0.159442 0.747539 0.463366 -1.17444 0.255079 -4.07695 -0.725108 0.0729245 0.175972
30 1 7.24708 9.94575 1.47696 -0.442635 -3.85768 -1.48635 0.302998 -4.10113 -0.642217 0.235427 0.560933
61 1 5.64026 8.55136 2.8925 1.91911 0.619101 3.74035 0.235785 -4.12916 0.957654 0.234756 -0.211865
33 1 11.2536 11.3866 2.91512 -2.40758 -3.14253 4.05982 0.233176 -4.06549 0.771007 0.261987 -0.455062
39 1 8.61055 11.4238 2.97149 -1.56762 1.60502 -2.5203 0.205036 -4.0355 -0.707003 -0.234299 -0.953109
57 1 11.4195 8.56564 3.00859 -0.983535 -1.04567 1.09676 0.184706 -4.09906 -0.0729251 0.177068 0.00795747
32 1 10.0047 9.91924 1.48334 1.45545 1.64825 -1.31177 0.14804 -4.15514 -0.342189 0.17343 0.0735838
63 1 8.55502 8.56419 2.94945 0.0806933 -2.70848 5.03402 0.10655 -4.06855 0.284383 0.0629916 -0.201628
34 1 1.48772 1.50987 4.24616 1.81992 -2.09853 0.548528 0.213156 -4.07485 0.212208 0.07531 0.359245
66 1 1.45734 1.52314 7.23329 0.898869 1.56855 -1.02245 0.232168 -4.13206 -0.194735 0.109763 -0.584433
75 1 2.85646 2.81395 5.74623 0.4266 4.01117 -0.549891 0.335158 -4.11735 0.270914 0.6764 -0.281329
36 1 4.34219 1.51442 4.24867 3.42759 2.06493 -2.41113 0.156786 -4.05419 0.264891 0.60766 0.791851
38 1 7.17158 1.52429 4.34789 -0.558767 2.12941 0.813978 0.0852721 -4.138 -0.353907 0.0707818 -0.540481
68 1 4.30974 1.5761 7.2432 0.804746 -2.79458 1.37987 0.255542 -4.00129 0.168975 -0.117093 -0.547778
70 1 7.09717 1.46553 7.07701 2.88017 -1.13172 2.72739 0.175851 -4.01955 -0.200292 0.287657 0.126218
77 1 5.62852 2.94163 5.70396 -2.78237 -0.986238 -0.239497 0.269484 -4.04196 0.795692 -0.0504756 0.286974
73 1 11.3415 2.96548 5.69948 -1.83134 -1.6293 -2.88458 0.0966801 -4.04746 0.214779 -0.513838 0.199738
40 1 9.90962 1.53133 4.31706 -0.499259 3.60062 3.02385 0.124772 -4.17139 0.454003 0.206077 0.206481
72 1 10.0058 1.50279 7.14739 -0.29495 1.53372 -3.15934 0.109209 -4.16004 -0.518048 -0.170617 0.0305174
79 1 8.56169 2.86369 5.76871 1.99803 0.0531584 -0.662401 0.0974092 -4.0715 0.0722639 0.47668 -0.185904
42 1 1.48716 4.3975 4.36171 -3.54308 0.503815 -0.754932 0.194561 -4.13135 0.0841715 -0.418308 -0.304533
50 1 1.53317 7.08617 4.44709 -0.23686 0.381258 1.43511 0.366835 -4.10067 -0.0648309 -0.0128084 -0.95334
74 1 1.49071 4.27336 7.10071 -0.862159 -0.86962 -0.475221 0.159542 -4.05449 0.0141163 0.187568 0.23455
82 1 1.5469 7.21255 7.15746 -0.577492 1.01385 0.107651 0.128116 -4.08265 0.0459107 -0.650953 -0.489476
83 1 2.98398 5.75223 5.74041 0.596135 -2.5147 -3.12454 0.186032 -4.08709 -0.195544 0.0638024 0.452914
44 1 4.26159 4.34507 4.27425 2.07359 0.125154 1.89345 0.11603 -4.09258 0.244904 -0.451614 -0.35722
46 1 7.2411 4.23008 4.29137 0.807964 1.29717 -0.850911 0.241474 -4.05184 -0.831517 0.447648 0.211816
52 1 4.37753 7.10982 4.22422 0.1764 -0.0592737 0.0432696 0.192038 -4.13678 -0.311533 -0.229011 0.459671
54 1 7.14272 7.26079 4.27304 4.16799 1.16186 0.119329 0.280153 -4.06039 -0.0856606 -0.905872 0.620744
76 1 4.28773 4.30573 7.05045 -3.31008 -2.32766 1.28494 0.263651 -4.00654 -0.132288 -0.00142858 0.566585
78 1 7.2253 4.36484 7.20507 0.214653 1.08046 2.90595 0.531996 -4.05733 -0.718284 -0.675918 -0.431095
84 1 4.39107 7.3538 7.17249 3.16417 0.185411 -0.672816 8.30914 -4.09194 -0.428736 -1.64794 -0.32999
85 1 5.65298 5.64667 5.62039 -3.10675 -1.08988 -5.84171 0.555712 -3.98863 0.957768 0.571826 0.468544
86 1 6.99117 7.09958 7.15595 1.50877 1.59093 3.24567 0.391583 -4.15775 0.598959 0.065286 -0.0336868
81 1 11.4187 5.75079 5.82093 -2.43999 1.81116 -0.130964 0.212103 -4.11157 -0.730096 -0.177143 -0.0473061
48 1 9.99264 4.2723 4.26108 -3.50783 -1.03224 -1.43636 0.184039 -4.05541 0.830541 0.187162 1.61913
56 1 10.0166 7.16268 4.40191 1.35372 3.56705 -2.37433 0.151207 -4.06817 -0.357152 0.0638792 -0.304208
80 1 9.95786 4.25123 7.20413 -3.32543 0.761714 1.11223 0.171349 -4.0949 -0.302689 0.547158 -0.483673
87 1 8.53473 5.70593 5.74903 -0.924111 -3.36569 -1.90428 0.124966 -4.05341 0.204608 0.182605 -0.446144
88 1 9.93546 7.2597 7.04702 1.3206 -1.60561 -1.92534 0.347809 -4.01742 -0.100911 -0.190998 0.309747
65 1 0.0804338 11.4257 5.70838 -3.40319 -1.41415 0.280153 0.0783305 -4.10184 0.11922 0.501038 -0.128376
67 1 2.90452 11.3863 5.8918 3.04935 0.668074 -0.121419 5.00028 -4.08967 0.958017 0.619523 -1.18119
58 1 1.51238 10.0928 4.42974 0.571105 -1.72875 1.57135 0.451047 -4.07802 0.314242 -0.29156 -1.13591
89 1 0.177982 8.5987 5.67231 -0.328965 0.977476 -0.0437962 0.148301 -4.10634 -0.614984 -0.249028 0.191965
90 1 1.50935 9.95349 7.0108 2.91506 -0.992701 -5.0088 0.282204 -4.11675 -0.278875 -0.256556 1.18151
91 1 2.99042 8.50186 5.64058 0.87298 2.376 0.0158193 0.575738 -4.10716 -0.402059 0.467263 0.462043
69 1 5.68896 11.2663 5.68938 0.658882 3.07759 3.21114 0.23876 -4.08678 -0.250246 0.971435 0.462748
60 1 4.31752 9.91527 4.33007 -2.22022 3.21894 2.9826 0.141433 -4.09879 -0.686542 0.659767 -0.537685
62 1 7.06655 9.96686 4.27796 1.6968 1.06263 2.93414 0.100983 -4.14157 0.497337 0.377735 -0.302761
92 1 4.32198 9.88285 7.24335 -0.211742 -0.348542 0.183043 0.474805 -4.15271 0.0797994 0.741987 -0.555446
93 1 5.70667 8.63674 5.65577 -1.40351 2.743 -1.83624 0.288313 -4.09927 0.238184 -1.0125 0.251638
94 1 7.12107 9.8678 7.07048 -0.0536791 3.95265 1.53944 0.37006 -4.05698 -0.938076 1.4009 1.08198
71 1 8.53014 11.336 5.69052 0.187316 0.478466 3.99199 0.0698056 -4.14516 -0.0141663 0.226653 0.228485
64 1 9.95761 10.0481 4.25793 -4.41474 0.183243 0.983136 0.210645 -4.12192 -0.168089 -1.27802 1.22509
95 1 8.45879 8.62652 5.72987 1.20736 -1.19753 0.698614 0.211097 -4.06005 0.954463 -0.86699 -0.652008
96 1 9.98452 10.0448 7.02523 -1.18913 -2.60212 2.13745 0.277426 -4.09333 0.156768 -0.590614 0.655839
98 1 1.52923 1.50644 9.96999 1.00713 -4.25415 1.70331 0.0721474 -4.19791 -0.233735 -0.236721 0.0672154
107 1 2.90238 2.95237 8.57652 -0.0937812 -3.8001 2.29387 0.146421 -4.18592 -0.0793526 -0.368973 -0.520063
13 1 5.85231 2.95133 11.2508 -1.25385 -2.3847 3.26826 4.71707 -4.14075 -0.70933 -0.473725 0.696538
100 1 4.23613 1.5418 10.0356 -1.81043 0.0883916 1.96346 0.253918 -4.09625 0.0836332 -0.652297 -0.0442403
102 1 7.10744 1.46289 9.914 4.42736 -0.259417 -1.18217 0.0994111 -3.96901 0.317442 0.0709842 0.602363
109 1 5.6618 2.96661 8.63478 -3.15784 2.13057 -0.153625 0.309866 -4.21502 0.571599 -0.162038 -0.418827
7 1 8.59677 0.0300784 11.3467 2.75838 -0.484866 -3.11609 0.106292 -4.12139 -0.0476781 0.42163 -0.500457
105 1 11.3511 2.96854 8.56711 0.255823 0.639157 1.95805 0.244963 -4.07207 0.662827 -0.0942174 0.0623633
103 1 8.45826 0.0141273 8.54903 4.3195 -0.0178548 -0.601919 0.377581 -4.14691 0.648642 0.297135 -0.136534
104 1 10.1352 1.42931 9.86222 0.0226312 -0.280351 0.430493 0.760865 -4.12239 -1.22633 0.0943052 0.323719
111 1 8.54763 2.774 8.56067 -0.432586 -0.759428 0.992478 0.371559 -4.12542 -0.192221 0.44019 -0.0146278
19 1 2.9305 5.82117 11.4854 -1.72565 -1.16593 4.90207 0.423871 -4.12782 0.249177 -0.470113 -0.572306
106 1 1.51261 4.32971 10.0974 -2.15045 -0.365076 2.6313 0.279691 -4.11451 -0.382963 -0.341747 -0.456474
113 1 0.0764385 5.82442 8.57022 -1.15586 1.95162 1.27438 0.286202 -4.15515 0.108454 -0.744945 -0.204207
114 1 1.52466 7.0275 10.0419 0.199107 0.856368 2.50644 0.327405 -4.02855 0.378515 1.17565 -0.760687
115 1 2.82392 5.61395 8.60424 -0.319229 -1.22446 -4.13567 4.99396 -4.07168 0.473349 0.704914 -0.498752
108 1 4.18457 4.2132 10.0438 3.21911 3.60244 3.31915 0.507832 -4.04981 0.638425 0.819351 0.26458
110 1 7.23396 4.44718 9.88917 1.74227 -1.16629 -0.983089 0.74569 -4.08072 -0.0538555 -0.289218 0.298853
116 1 4.32367 7.18352 9.83325 -0.395056 -5.33206 -0.835326 0.672473 -4.08546 -0.012506 -0.115714 0.735297
117 1 5.58036 5.58693 8.54801 2.67664 -1.40537 1.89466 1.07656 -4.04215 0.241888 0.530054 0.0537192
118 1 7.097 7.16382 9.97958 -1.16477 0.790708 -6.24013 0.221636 -4.11646 0.293641 -0.422242 -0.576497
112 1 9.9364 4.1991 9.99814 0.463887 1.07068 -5.87272 0.332643 -4.10903 0.327257 1.14411 -0.799452
119 1 8.61643 5.77725 8.53638 -0.245662 -1.44535 -1.4773 0.303656 -4.04172 0.187062 0.285193 0.0361171
120 1 9.98438 7.11828 10.0207 1.19337 0.419024 2.71783 0.162672 -4.02143 -0.237955 0.684016 -0.341882
25 1 0.144752 8.47743 11.4766 0.563247 -0.0767089 -4.03277 0.233652 -4.12559 -0.0567759 0.898548 -1.02857
97 1 0.100913 11.3161 8.48024 0.193914 -0.759409 0.751139 0.181436 -4.06175 0.622354 -0.138382 -0.0866831
99 1 2.90552 11.4177 8.48487 -0.837703 2.97978 -0.443714 0.256708 -4.08035 -0.0434422 -0.534596 0.883215
121 1 0.142711 8.49277 8.53351 0.259368 -2.0841 -3.62901 0.140668 -4.10164 -0.420003 0.258038 0.113616
122 1 1.46269 9.94948 9.99013 3.30684 0.316941 0.94941 0.0877076 -4.08521 0.460544 0.0438349 -0.207536
123 1 2.84298 8.59451 8.50849 0.451372 3.72009 -1.39842 0.358023 -4.00969 -0.0905068 -0.108547 0.89927
5 1 5.72008 11.403 11.4671 -4.23709 -1.61961 -1.06934 0.122464 -4.09945 -0.0125417 -0.283996 -0.38082
101 1 5.64365 11.4899 8.62197 -0.468959 2.01153 -0.228911 0.442304 -4.08622 0.33746 -1.01876 -0.540572
124 1 4.34214 9.91644 10.0046 0.798529 1.09648 -0.779847 0.121563 -4.10374 -0.27987 0.0898085 -0.0958476
125 1 5.78361 8.62801 8.5731 -5.15903 4.90794 0.853214 0.317105 -3.99571 0.0676379 -0.3065 0.155808
126 1 7.05197 9.93964 9.99361 -0.428108 -1.1044 -1.44244 0.186855 -4.07929 0.206752 0.373635 0.395419
31 1 8.48423 8.54872 11.3486 1.16238 1.75596 -0.0667445 0.244651 -4.0877 0.644624 0.201712 -0.602812
127 1 8.53108 8.65218 8.52239 1.8975 -3.15579 0.094225 0.190675 -4.0757 0.401632 -0.679557 0.168196
128 1 10.0889 9.96577 9.89947 -1.4516 -2.27313 0.419796 0.432509 -4.00687 -0.958205 -0.608133 0.590063
