ITEM: TIMESTEP
16250
ITEM: NUMBER OF ATOMS
128
ITEM: BOX BOUNDS pp pp pp
8.3034143446234943e-02 1.1380965856553479e+01
8.4105026003322259e-02 1.1379894973996521e+01
8.2649269451180896e-02 1.1381350730548700e+01
ITEM: ATOMS id type x y z vx vy vz c_csym c_peratom fx fy fz
2 1 1.43829 1.45622 1.4721 -1.38203 2.90044 -2.36273 0.124556 -4.12107 0.187933 -0.147939 0.184252
11 1 2.83724 2.80599 0.07857 3.70876 -1.14249 0.887249 0.190668 -4.13793 0.123682 0.68164 0.36634
41 1 0.0795593 3.00656 2.74917 -4.9213 6.13369 -2.11244 0.437535 -3.96459 1.20732 -0.891663 0.655679
43 1 2.9149 2.94743 2.83403 -1.56802 2.59428 -3.39641 0.0818973 -4.04195 -0.158951 -0.0619433 0.291297
4 1 4.28562 1.43908 1.46601 -1.39004 -2.07291 -1.58928 0.136164 -4.10391 -0.0745269 0.619043 0.339055
6 1 7.17366 1.57116 1.55695 -3.02727 0.521922 -0.350853 0.148437 -4.08894 -0.462194 -0.31127 -0.124891
37 1 5.67534 0.0969938 2.85907 -0.567591 0.146983 -1.09096 0.151784 -4.13253 0.60444 -0.0647374 0.366005
45 1 5.74082 2.93245 2.94066 -1.67713 -1.34542 1.88167 0.0670365 -4.12536 -0.381065 -0.136663 -0.361667
9 1 11.4165 2.87679 0.00986607 2.41544 -3.09263 -2.9176 0.262475 -4.13857 -0.0502779 -0.40709 0.21995
8 1 9.97364 1.48197 1.65392 1.3977 -1.86506 0.962874 4.61433 -4.14527 0.0731504 0.401953 -1.17628
15 1 8.59474 2.8653 0.132576 1.6691 -1.73651 -3.74636 0.106035 -4.14289 -0.142787 -0.0329113 -0.33991
47 1 8.46571 2.96889 2.89831 2.02796 1.36465 0.865746 0.370862 -4.07635 0.662445 0.306252 0.0320294
10 1 1.46356 4.40267 1.44657 0.448072 0.826257 0.682383 0.148512 -4.16444 0.427963 -0.270603 0.00572032
17 1 0.10843 5.71981 0.0240176 2.70467 -1.72997 -1.94416 0.135606 -4.02678 -0.896198 -0.229381 0.941091
18 1 1.54626 7.10925 1.35582 -3.12719 -2.58573 -2.36178 0.225777 -4.12626 -0.312564 0.23401 1.15109
49 1 0.15333 5.84615 2.8825 0.703124 -2.94966 -1.34195 0.299547 -4.00385 -0.77267 -0.242527 -0.415494
51 1 2.9859 5.78158 2.88092 -1.65757 -0.74953 0.349495 0.0856299 -4.10339 -0.318512 -0.0319952 -0.025331
12 1 4.39132 4.35765 1.49456 -0.0587222 1.58599 1.55184 0.141697 -4.02809 -0.458029 -0.377783 -0.149639
14 1 7.1344 4.29722 1.45862 2.21899 0.886787 2.41522 0.122944 -4.11178 -0.137211 -0.0156745 -0.351793
20 1 4.40964 7.21002 1.49506 1.90514 -6.50902 -2.27026 0.188072 -4.12738 -0.357954 -0.211904 -0.108586
21 1 5.75626 5.71514 0.0366947 1.17701 0.766513 -1.59424 0.111455 -4.10865 -0.185988 -0.00854628 0.292321
22 1 7.13459 7.1663 1.40831 -1.27753 1.00913 2.54412 0.159831 -4.13778 -0.690223 0.632204 0.532471
53 1 5.74766 5.70088 2.87011 0.781908 4.28314 1.09227 0.0641563 -4.18953 0.24371 0.1582 0.0743399
16 1 10.0441 4.25345 1.34251 -3.30571 2.37669 3.20784 4.74923 -4.08464 -0.668559 1.04357 1.02846
23 1 8.54597 5.83599 0.162306 -1.20731 -1.65168 -2.24294 0.337108 -4.03409 0.284936 -0.700952 -0.84933
24 1 10.0022 7.2129 1.43295 -1.15479 1.27904 0.533366 0.172406 -4.1059 -0.0882954 -0.177072 0.152863
55 1 8.41972 5.7213 2.82398 1.02799 -1.26436 -2.66848 4.78309 -3.99651 1.25335 0.15366 0.678084
1 1 -0.00310077 11.4085 0.0810282 1.7781 -2.71475 0.13368 0.206903 -4.09907 0.302831 -0.453138 0.263994
3 1 2.9584 11.3345 0.0404097 -1.74238 0.531501 0.169492 0.120505 -4.08003 -0.303643 -0.103404 0.547307
35 1 2.8743 11.4238 2.9215 1.22675 -0.229062 2.05178 0.0700847 -4.11635 0.23708 -0.24917 -0.0116055
26 1 1.50559 9.99684 1.51489 -0.135317 2.90777 3.13651 0.122177 -4.07988 -0.140468 -0.171 -0.617769
27 1 2.92063 8.44315 0.0321642 2.81715 1.43843 0.312985 0.224333 -4.0588 0.000247491 0.851954 0.266398
59 1 2.88673 8.64595 2.92125 0.0748118 0.643092 -1.03609 0.15936 -4.04544 0.476675 -0.769909 -0.217792
28 1 4.32171 10.0119 1.44768 -3.07512 -0.318724 -0.414405 0.130037 -4.1148 -0.385373 -0.308721 0.373577
29 1 5.68635 8.67112 0.0798744 -0.423278 -0.150761 -0.786614 0.257567 -4.05915 0.388354 -0.678711 -0.201875
30 1 7.12716 9.93264 1.42596 4.03975 -0.0838989 -0.7973 0.245502 -4.0729 0.296108 0.286001 0.62874
61 1 5.72272 8.58373 2.89667 2.5458 0.0761868 1.54351 0.0380637 -4.08555 0.0775279 0.175294 0.22161
33 1 11.358 11.3456 2.95051 0.33773 -1.21892 -3.41824 0.185773 -4.08067 -0.0124357 -0.219972 -0.0376967
39 1 8.54264 11.3688 2.87622 -0.839861 -2.46407 -3.89238 0.13822 -4.11756 -0.107532 -0.368625 0.337798
57 1 11.4262 8.58851 2.86168 -0.642962 -1.98035 -2.43159 0.138564 -4.06641 0.149972 -0.346757 -0.212364
32 1 9.85792 9.94241 1.41991 3.12457 -0.514604 0.815382 0.318048 -4.08411 1.09181 0.109252 0.643265
63 1 8.55743 8.47139 2.9361 3.26062 -1.22749 -0.661161 0.240474 -4.12009 -0.265152 0.370419 -0.106623
34 1 1.49057 1.49939 4.30175 -2.30782 -3.33351 0.789838 0.0384248 -4.09735 0.00211975 0.206046 -0.152437
66 1 1.54344 1.48132 7.21551 0.311317 0.108978 -1.27871 0.172092 -4.04208 -0.451774 -0.235891 -0.396769
75 1 2.8827 2.95237 5.75897 -1.85207 3.73163 1.05208 0.113618 -4.0348 -0.269203 0.0411294 -0.285253
36 1 4.34343 1.49124 4.33747 1.85238 -1.18744 -2.27821 0.067857 -4.129 -0.170594 0.238826 0.222798
38 1 7.16282 1.59968 4.31577 -1.03643 -0.342245 -3.18653 0.218134 -4.14421 -0.329282 -0.614528 0.222094
68 1 4.31199 1.48677 7.06224 -2.25652 2.22416 -4.32319 0.246115 -4.12098 -0.0465667 -0.0641216 0.537135
70 1 7.09055 1.48262 7.14503 3.26664 -2.99748 -0.0253211 0.302766 -4.08929 0.796122 -0.581495 -0.430077
77 1 5.74248 2.96442 5.80192 -1.70818 0.474717 1.43553 0.159587 -4.09291 -0.042735 -0.26925 -0.544372
73 1 11.4945 2.86134 5.741 2.69119 0.405626 -0.723546 0.591334 -4.02121 -0.480905 0.441718 -0.104983
40 1 9.98136 1.63239 4.18175 3.31081 -0.767193 1.92816 4.85165 -4.13399 -0.11463 -0.521176 1.03124
72 1 9.97266 1.59511 7.00544 0.592123 1.82214 1.98263 0.654478 -3.99929 -0.223328 -1.25326 0.579362
79 1 8.4978 2.96012 5.81788 2.96842 1.39749 -0.165534 0.40804 -4.04511 0.440533 0.0566992 -0.773436
42 1 1.45033 4.43785 4.22472 -0.660541 -2.10047 0.507644 0.296425 -4.15511 0.393657 -0.790673 0.468944
50 1 1.5045 7.16068 4.31521 3.18595 1.19284 0.469476 0.0464799 -4.12031 0.140355 0.078048 -0.0694946
74 1 1.33209 4.42326 7.07672 0.0304516 -2.05765 4.93005 4.91097 -4.01577 1.43096 -1.09351 1.16643
82 1 1.5509 7.00826 7.25116 3.53151 -2.414 2.65715 0.459651 -4.05483 -0.0653346 0.415589 -0.416459
83 1 2.85221 5.70908 5.74434 0.0401077 -1.32088 1.05998 0.0949344 -4.10767 0.44376 0.147882 0.026113
44 1 4.30618 4.32686 4.32977 -7.37779 -4.39244 1.85183 0.0329519 -4.13773 0.0568204 -0.044077 0.0423457
46 1 7.08438 4.3022 4.33656 -0.0528814 -1.32001 0.120329 0.0531554 -4.11065 0.0798298 0.157938 0.172948
52 1 4.3912 7.10067 4.34027 0.441759 -2.00263 -0.131296 0.159964 -4.06815 -0.498712 0.41134 0.128079
54 1 7.04807 7.17929 4.3262 -5.00919 -1.14756 0.694572 0.232073 -4.02666 0.275263 -0.264735 0.150541
76 1 4.34218 4.28959 7.13988 1.53321 -0.553149 -2.47846 0.11361 -4.08424 -0.34141 0.0239177 0.447116
78 1 7.14548 4.32947 7.14059 -1.05114 5.46547 -2.20542 0.108446 -4.11795 -0.266317 0.111374 0.534717
84 1 4.33826 7.07856 7.24362 0.489738 -0.633486 -1.94802 0.190614 -4.09966 -0.012286 0.0818205 -0.477648
85 1 5.71868 5.69128 5.73988 -0.723293 1.81961 0.674052 0.0534014 -4.10289 0.0584552 0.110547 0.0181849
86 1 7.00426 7.07577 7.2178 -2.445 2.80557 -4.02689 0.472943 -4.09896 0.550559 0.288647 -0.335173
81 1 11.3993 5.7787 5.70301 -1.25623 -1.22135 -0.335328 0.175693 -4.15275 -0.610856 0.424056 -0.330431
48 1 10.093 4.22435 4.25957 -0.739884 -2.09275 -0.152743 4.90066 -4.05124 -0.75921 0.763732 0.471258
56 1 10.0607 7.1809 4.34315 0.49053 -1.12437 2.57755 5.10274 -4.00953 -0.492803 -0.40522 -0.52195
80 1 10.032 4.38018 7.16903 -2.2585 0.522346 -0.239951 0.207758 -4.06979 -0.39363 -0.915908 -0.75127
87 1 8.59764 5.70843 5.74849 0.528384 -1.1808 -2.75157 0.0942825 -4.12692 -0.173764 0.34454 -0.478207
88 1 9.97928 7.20913 7.1184 -2.72186 -1.95705 0.685535 0.204851 -4.02986 -0.0963314 -0.733005 0.275605
65 1 0.0862536 11.3804 5.7263 -0.0038211 0.950912 0.461143 0.132356 -4.07205 -0.0247379 0.0731085 -0.173806
67 1 2.91349 11.297 5.75185 -0.394394 0.345669 1.59411 0.179497 -4.13383 -0.650795 0.826985 -0.14895
58 1 1.50734 9.93462 4.31859 -0.508888 -3.17325 0.454724 0.0562781 -4.08735 -0.081051 0.200337 0.284832
89 1 0.12128 8.45192 5.80319 -2.2716 -1.62499 3.84505 0.32081 -4.15675 0.324331 1.03311 -0.187984
90 1 1.49681 10.0025 7.15681 -1.08532 3.57182 -2.81397 0.140401 -4.02728 -0.398583 -0.248067 -0.284201
91 1 2.91717 8.53604 5.82299 3.02235 1.6325 1.87429 0.091655 -4.14919 0.076824 -0.130262 -0.368295
69 1 5.76728 11.3166 5.69874 3.16172 3.16965 1.09982 0.224131 -4.06715 0.0953357 0.741753 0.364784
60 1 4.31643 10.0334 4.38925 -1.8744 1.17969 2.39206 0.126701 -4.10393 -0.0840183 -0.734295 -0.826854
62 1 7.1081 9.98009 4.32109 -0.102103 -1.49249 1.08188 0.131511 -4.03932 0.196995 -0.596153 -0.207448
92 1 4.32865 10.0143 7.12487 -2.55929 1.78703 3.49666 0.0978695 -4.13964 0.210973 -0.0720223 0.329239
93 1 5.70407 8.6014 5.79325 0.315399 3.07988 4.09439 0.0975758 -4.09733 0.0935881 -0.0989701 -0.14109
94 1 7.18607 10.0253 7.18217 -0.308666 0.614276 0.663811 0.296063 -4.12624 0.265052 -0.298471 -0.212082
71 1 8.60464 11.3176 5.52255 0.225407 -4.155 0.919963 4.6566 -3.94477 0.12446 0.740172 0.813404
64 1 10.0466 9.80333 4.31521 1.09216 1.92908 -0.840042 0.362716 -4.06996 -0.340358 0.764865 0.117668
95 1 8.56886 8.43355 5.71963 -0.225377 -2.35184 -0.917414 0.42396 -4.10814 -0.782496 0.705337 -0.0362663
96 1 9.86663 10.0276 7.15355 2.9198 6.59024 1.47667 0.499617 -4.02278 0.259616 -0.406453 0.120128
98 1 1.53714 1.34957 10.0508 -1.51942 -0.43371 -0.946498 0.44328 -4.07505 -0.425275 0.286332 -0.701461
107 1 2.81739 2.89856 8.6391 0.12262 -0.257768 -0.657907 0.244465 -4.04951 0.496564 -0.00402263 -0.722178
13 1 5.67087 2.89919 11.355 -0.624896 1.41611 1.93907 0.168022 -4.12725 0.578415 -0.237916 0.569462
100 1 4.3168 1.43658 10.0162 0.634647 -0.465784 -3.54358 0.145117 -4.09123 -0.298898 0.245715 -0.4751
102 1 7.1433 1.57378 10.052 0.243814 0.285205 -1.33868 0.114647 -4.01761 -0.0513887 -0.0999836 -0.204202
109 1 5.81039 2.79208 8.56233 2.83768 1.12706 -0.805769 0.337502 -4.08917 -0.927986 1.20846 0.226515
7 1 8.56898 0.206805 11.4343 -0.0191828 0.724877 2.92449 0.293043 -4.15798 -0.277215 -0.545881 -0.279363
105 1 11.316 2.797 8.5968 1.46592 -0.6327 -0.640657 0.427575 -4.12739 0.790441 0.753336 -0.178077
103 1 8.48649 0.216379 8.69811 -2.54477 0.0702937 0.676474 0.6719 -4.01617 0.699049 -0.178264 -1.03488
104 1 10.0019 1.46702 9.97588 4.22965 1.39787 0.705987 0.0997583 -4.01239 -0.414099 0.221199 0.25802
111 1 8.64389 2.95674 8.54973 -0.768281 2.78378 -0.067272 0.185766 -4.17633 -0.565986 -0.327543 0.0718535
19 1 3.00734 5.71729 11.4026 -2.82905 -1.2511 1.60986 0.182962 -4.1498 0.148571 -0.344511 0.0181376
106 1 1.47057 4.35658 9.99977 -1.24243 -0.705751 2.67493 0.15313 -4.10632 -0.178614 -0.479112 -0.393094
113 1 -0.0125944 5.77129 8.50548 0.366917 5.78854 -0.45111 0.424035 -4.10489 0.484966 0.0401916 1.03549
114 1 1.52466 6.96881 10.0649 -1.69787 -1.39002 -3.44217 4.86136 -4.10717 0.566216 1.3587 -1.52302
115 1 2.95163 5.65609 8.65939 2.00186 -3.72398 2.29247 0.222784 -4.06035 -0.112894 0.0777256 -0.454427
108 1 4.24234 4.17424 10.0563 -0.098997 -2.28324 2.16541 0.345152 -4.01263 0.503523 0.633231 -0.545951
110 1 7.21475 4.35114 9.96147 2.4696 0.163891 2.65285 0.157482 -4.06632 -0.186173 -0.242975 0.32361
116 1 4.39831 7.15884 10.0321 -0.533966 0.443655 -1.33138 0.226931 -4.13537 -0.384667 -0.00544382 -0.702454
117 1 5.65917 5.65044 8.6577 -2.35273 2.94125 3.41023 0.299073 -4.0499 0.36931 -0.130907 -0.162505
118 1 7.11384 7.20204 9.96545 -1.00483 -1.15555 0.823209 0.116567 -4.18174 0.0726156 -0.151511 -0.0747214
112 1 9.93645 4.31486 10.0677 -4.36951 -5.73233 0.0941404 0.280027 -4.08092 0.117702 0.391156 -0.76282
119 1 8.58095 5.75977 8.48617 -1.59558 3.37138 -1.19457 0.252142 -4.11284 0.0468429 0.0469471 0.547609
120 1 10.0149 7.20284 10.0407 -1.00316 1.30293 -2.36981 0.353758 -4.11612 -1.054 -1.08298 -0.79408
25 1 0.123365 8.51009 11.2472 -1.1182 2.82163 0.637031 0.369216 -4.02311 0.329753 0.679567 1.61564
97 1 0.028559 11.3072 8.57383 0.84139 -3.07494 0.933915 0.156264 -4.13051 0.252553 0.686405 -0.273826
99 1 2.86654 11.3395 8.51265 -4.33445 1.92511 1.30591 0.116455 -4.13117 0.464311 0.0673207 0.440932
121 1 0.122178 8.49121 8.58529 0.782473 3.37355 -0.951585 0.117947 -4.17057 -0.10276 0.205413 -0.304064
122 1 1.46376 9.89287 9.96549 0.407379 3.01562 0.350367 0.109299 -4.07117 0.430521 0.863143 0.0420745
123 1 2.87038 8.57494 8.50816 -1.77779 -0.0131926 -0.838236 0.299278 -4.14306 0.255906 -0.367919 0.619726
5 1 5.77248 11.4665 11.4894 -0.993 -1.44836 1.37176 0.378086 -4.15036 0.347195 -0.691799 -1.10734
101 1 5.67834 11.41 8.62531 -0.0376552 -3.22961 -3.824 0.188884 -4.10887 0.156746 -0.0788053 -0.205693
124 1 4.306 9.93266 9.97737 2.6131 -0.700045 2.51776 0.0883929 -4.08173 -0.0398806 0.525828 0.0326619
125 1 5.724 8.66043 8.55308 6.94757 4.6594 -0.374253 0.264264 -4.05673 -0.083818 -0.509953 -0.0284376
126 1 7.18793 9.97377 9.89913 1.88005 -0.854959 1.14281 0.398385 -4.13759 -0.273011 0.233832 0.611535
31 1 8.5267 8.64484 11.3335 0.150616 -1.61037 1.22952 0.135529 -4.04671 -0.183806 -0.857934 0.0767246
127 1 8.59351 8.44445 8.56789 -0.473333 -0.740851 -3.39504 0.459692 -4.05975 -0.123156 0.531639 -0.252618
128 1 9.95427 9.94386 10.0053 1.52361 -0.460046 -1.04372 0.0636112 -4.15898 -0.260395 0.189951 -0.464814
