ITEM: TIMESTEP
20000
ITEM: NUMBER OF ATOMS
128
ITEM: BOX BOUNDS pp pp pp
8.9410426066687698e-02 1.1374589573933010e+01
8.8508134561579688e-02 1.1375491865438228e+01
8.2649057600562931e-02 1.1381350942399319e+01
ITEM: ATOMS id type x y z vx vy vz c_csym c_peratom fx fy fz
2 1 1.48438 1.61316 1.53998 2.40937 -2.02869 2.36536 0.328002 -4.03037 -0.232292 -1.48382 -0.305468
11 1 2.82079 2.878 0.161078 -1.86345 -1.06419 1.31449 0.284578 -4.06336 0.919035 0.779448 -0.774447
41 1 0.0509657 2.83859 2.86813 2.21506 -2.18239 2.18006 0.319228 -4.11104 -0.356652 0.582193 0.820934
43 1 2.93907 2.85797 2.87755 1.0007 1.94067 -0.744327 0.176968 -4.14794 0.0528496 0.448606 0.225775
4 1 4.30206 1.48652 1.40756 -1.87929 -0.503026 4.52957 0.147712 -4.03609 0.285504 0.264103 0.000759258
6 1 7.1661 1.53043 1.42272 -2.93196 -1.50495 -0.860796 0.0667579 -4.1261 -0.260404 -0.0348126 0.0337667
37 1 5.67735 0.115366 2.83934 -0.188907 1.74391 2.54637 0.178974 -4.11361 0.353748 -0.17573 0.432803
45 1 5.70205 2.84287 2.90337 -1.87324 0.420103 -1.24925 0.114164 -4.14851 0.223637 0.226364 -0.5354
9 1 11.4183 3.0546 0.124029 -1.70915 1.15062 0.0639798 0.194924 -4.10468 -0.148459 -0.614877 0.178881
8 1 9.91163 1.57078 1.41789 -0.286843 -0.227095 0.495422 0.2461 -4.05579 0.553977 -0.368973 0.395767
15 1 8.56582 2.93201 -0.0515643 0.979412 0.340622 -3.5075 0.322483 -4.09782 -0.139135 -0.0686469 0.153112
47 1 8.59196 2.8648 2.92832 -0.74763 1.72967 -0.0486014 0.179158 -4.12186 -0.324282 0.228716 0.0379998
10 1 1.44612 4.39027 1.56158 -1.712 3.31067 -4.38576 0.235281 -4.16886 0.49995 -0.269873 0.0396741
17 1 0.0852478 5.8005 0.163083 1.15189 -0.433299 -1.31068 0.0791721 -4.07874 -0.135924 -0.115532 -0.205796
18 1 1.4852 7.16313 1.44877 0.165605 -1.28454 0.578298 0.217827 -4.1258 -0.055421 0.43704 0.629653
49 1 0.0742486 5.66054 2.96928 0.12971 2.22492 -2.55771 0.116103 -4.04833 -0.0375778 0.6732 -0.0623034
51 1 2.87776 5.835 2.94521 3.03622 -1.31165 1.49088 0.28092 -4.05268 0.812507 -1.00633 -0.815748
12 1 4.28941 4.35647 1.54184 -1.11771 -1.96747 -0.113415 0.246575 -4.05983 -0.30117 -0.600719 -0.457321
14 1 7.15481 4.26245 1.45491 -2.16741 0.417107 -0.479286 0.0948534 -4.11324 0.806156 -0.243107 0.365029
20 1 4.34832 7.097 1.44764 1.47561 4.81203 0.839946 0.17185 -4.19064 -0.0312351 -0.162387 0.243186
21 1 5.8353 5.62836 0.145043 -0.509257 1.74975 1.10764 0.418833 -4.05851 -0.617787 0.411757 -1.04629
22 1 7.20664 7.04289 1.48185 2.43283 2.41503 -4.83669 0.268107 -4.09946 -0.232442 0.830311 0.515391
53 1 5.7737 5.61411 2.79103 -2.92057 2.1742 -1.35907 0.361772 -4.03119 -0.354929 0.753699 0.866666
16 1 9.89614 4.35211 1.49542 -1.53867 -1.93615 -0.980325 0.177 -4.18115 0.351491 -0.215054 -0.00109427
23 1 8.61837 5.77774 0.028011 -1.6443 -0.595487 0.134342 0.179759 -4.09186 -0.385873 -0.586694 0.487304
24 1 9.94766 7.13533 1.63356 0.914862 3.35352 -1.89171 0.218944 -4.13635 0.0528609 0.0498837 -0.156371
55 1 8.56556 5.61466 3.00828 -2.88164 -0.985654 2.25858 0.414888 -4.04337 -0.371943 0.666186 -0.786698
1 1 0.158666 11.3752 0.072759 2.17322 -1.79817 0.083267 0.128835 -4.0699 -0.597472 0.158024 0.139951
3 1 2.85194 11.3334 0.113636 2.54873 1.4016 2.71637 0.181256 -4.14412 0.139659 0.441518 -0.0872898
35 1 2.96031 11.4186 2.95332 2.44391 0.816138 -1.39516 0.0925569 -4.18375 -0.230653 -0.353831 -0.429413
26 1 1.4178 10.0429 1.50609 -2.61004 -0.0849288 1.63866 0.267697 -4.00232 0.341524 -0.788956 0.284167
27 1 2.96769 8.63241 0.136616 -5.51748 1.79284 1.15165 0.257013 -4.05039 -0.120531 -0.63016 0.370508
59 1 2.95804 8.54869 2.84076 1.46203 -1.82591 -1.57649 0.137567 -4.12685 -0.210657 0.118071 0.253678
28 1 4.33055 9.91638 1.4831 2.10854 1.77792 -2.77688 0.163155 -4.08072 -0.0544368 1.06337 0.220426
29 1 5.68813 8.55267 0.164717 1.11753 0.180395 -0.538903 0.20022 -4.03548 0.906483 -0.444843 -0.695184
30 1 7.13173 10.0481 1.42333 1.53534 2.22257 -0.289093 0.130266 -4.10182 0.0971364 -0.253603 0.505754
61 1 5.64802 8.62458 2.92438 1.53806 -2.15745 -0.799954 0.438286 -3.98179 1.36193 -0.59941 -1.02493
33 1 11.3745 11.4238 3.06116 1.92209 0.930211 -1.06204 5.03398 -4.1128 -0.0207127 -0.350378 -0.600054
39 1 8.47071 11.4596 2.91129 -1.44626 -2.72326 -0.0514261 0.121275 -4.07713 0.825173 -0.3489 -0.162191
57 1 11.393 8.62999 3.07164 1.75961 -1.03224 -0.710035 0.493696 -4.06445 -0.0613024 -0.416586 -0.646772
32 1 9.9463 9.94743 1.5644 -2.31043 -1.71521 -2.71584 0.214939 -4.01286 -0.141257 1.12671 -0.157406
63 1 8.57545 8.6579 2.94225 -4.17608 2.32559 2.01095 0.251697 -4.03021 -0.375327 -0.551124 -0.218482
34 1 1.58041 1.59994 4.37315 -4.68107 -2.91196 -1.04639 0.448237 -4.05197 -0.708005 -0.731594 -0.291229
66 1 1.46802 1.53957 7.17585 -1.35081 0.181382 -2.10683 0.176254 -4.14277 0.544779 -0.618258 -0.368529
75 1 2.87971 2.90508 5.75222 -3.44748 -1.68744 -4.46901 0.0628003 -4.03976 0.606077 0.285537 0.407276
36 1 4.38129 1.48052 4.32392 1.78771 -0.172289 4.28739 0.15245 -4.08541 -0.518957 0.389986 -0.0207162
38 1 7.1404 1.52127 4.30789 -0.268238 1.09655 -1.5347 0.100192 -4.04329 -0.0465293 -0.226332 0.552774
68 1 4.21056 1.45156 7.20782 1.61387 -1.56626 -0.529713 0.320472 -4.07411 0.768558 1.01956 -0.542186
70 1 7.17015 1.51164 7.16358 1.014 -1.87306 0.179884 0.0741989 -4.01571 -0.273645 0.128287 -0.624923
77 1 5.6781 2.94695 5.67134 -2.27944 0.134593 1.2264 0.133076 -4.04967 0.385417 -0.783875 0.716964
73 1 11.2927 2.7705 5.79952 1.28354 -2.74281 -1.0753 0.493188 -4.10097 0.677375 1.56011 -0.7778
40 1 9.93972 1.49117 4.43408 -1.28377 1.1629 -3.63479 0.228755 -4.02421 -0.826351 0.0357486 -0.876835
72 1 10.0196 1.44051 7.15849 2.2036 0.717433 -2.5131 0.0860111 -4.09866 -0.51379 -0.621911 0.149691
79 1 8.56737 3.0331 5.78501 2.90994 -1.39392 -0.654931 0.301517 -4.11902 -0.135844 -0.778929 0.015804
42 1 1.50108 4.29378 4.29447 -3.57756 3.37669 -1.36512 0.105728 -4.09232 -0.133353 -0.296602 0.300574
50 1 1.57666 7.10284 4.31053 1.65577 0.0964681 0.469181 0.178947 -4.03747 -1.4758 0.419306 0.426036
74 1 1.37761 4.31472 7.14273 -0.531573 -0.911817 0.303441 5.31319 -4.02326 1.37525 -0.218172 -0.303192
82 1 1.43943 7.16493 7.18554 -1.86196 1.17496 -0.14537 0.303378 -3.9846 0.504869 -0.13247 -0.618289
83 1 3.04045 5.76542 5.54999 -4.62483 -0.292787 1.91209 8.5128 -4.01249 -0.947617 -0.375889 1.6127
44 1 4.30564 4.23908 4.32009 0.127569 0.558194 0.720848 0.218084 -4.12912 0.0359387 0.732207 -0.685915
46 1 7.07757 4.3345 4.26231 1.2325 0.618801 -4.3687 0.168028 -4.1107 0.128398 -0.559349 0.506188
52 1 4.38749 7.15788 4.25523 3.38703 0.279262 2.64405 0.194062 -4.14668 0.354459 0.113629 -0.145892
54 1 7.10819 7.22666 4.22761 -1.08705 1.49982 1.49569 0.507546 -4.10594 0.0662086 -0.822243 0.11664
76 1 4.36 4.33356 7.05768 -1.24611 -0.548019 -1.31401 0.151639 -4.08382 -0.213712 -0.300745 0.49456
78 1 7.06413 4.3499 7.12397 1.36853 -0.347689 0.143236 0.194432 -4.09586 0.315793 -0.0309957 0.378746
84 1 4.31457 7.15276 7.05864 1.48695 0.482748 -0.0658572 0.110355 -4.03417 0.269103 -0.199969 0.643798
85 1 5.73513 5.79737 5.69258 1.92857 -2.42983 -2.41501 0.100873 -4.11782 0.0893598 -0.203884 -0.0168132
86 1 7.24051 7.14131 7.15601 -0.311033 1.2164 -0.893951 0.249646 -4.11553 -0.935997 -0.504701 0.521215
81 1 11.3539 5.68322 5.79803 -0.557488 1.0578 3.42896 0.144954 -4.09507 -0.00979693 0.589686 -0.704504
48 1 9.94622 4.29326 4.33185 5.31773 -2.67665 -1.73027 0.10023 -4.07808 0.700656 -0.319445 0.195727
56 1 9.88698 7.04695 4.36294 2.39598 1.37789 2.46638 0.202552 -4.11541 0.277131 0.584316 -0.629327
80 1 9.97054 4.32259 7.23182 -1.44141 1.68373 0.388289 0.175156 -4.12211 0.0827206 0.262851 -0.402405
87 1 8.58278 5.68716 5.73049 -1.61943 -0.0996945 2.5707 0.163897 -4.13713 -0.766666 -0.191515 -0.22522
88 1 9.89389 7.14632 7.0413 -0.290242 2.64388 3.51754 0.317991 -4.11136 0.736382 -0.153053 0.986024
65 1 0.0769264 11.3604 5.65471 -0.961353 -0.400867 -3.86363 0.326376 -4.12955 0.407004 0.053945 0.296174
67 1 2.99058 11.3793 5.70326 -1.00761 -2.48725 -1.42422 0.145335 -4.12951 -0.478943 0.636009 -0.0109907
58 1 1.74806 9.89602 4.36181 1.67229 1.8632 2.91225 4.27452 -3.95193 -1.389 0.651229 -0.661739
89 1 0.0105293 8.51359 5.65931 1.96218 -0.137218 0.499371 0.282438 -4.08552 0.510587 0.325533 0.141658
90 1 1.51395 10.0326 6.91336 -1.44181 -3.6041 0.793388 3.96277 -3.98978 -0.152802 -1.12095 1.29938
91 1 2.93423 8.42796 5.66736 0.847825 1.49217 1.59284 0.350031 -4.12069 0.295345 0.196411 0.643202
69 1 5.56787 11.3819 5.80305 2.89482 2.77274 1.82839 4.99289 -4.05026 1.52616 0.18521 -0.343774
60 1 4.4312 9.88499 4.3979 -3.11475 2.93946 3.06318 0.515518 -4.13305 -0.990928 0.593392 -0.118458
62 1 7.1773 9.97402 4.3621 1.72683 -1.21153 0.331895 0.175764 -4.13977 -0.709618 0.468252 -0.122916
92 1 4.23748 9.90882 7.04548 -1.82875 -1.88676 -1.35962 0.351525 -4.12218 0.124516 -0.130978 0.523851
93 1 5.81046 8.59939 5.82585 1.78013 3.76993 0.597104 0.414015 -4.11681 -0.593317 -0.775436 -0.539415
94 1 7.13311 9.93146 7.169 1.18366 0.502462 -2.18868 0.154186 -4.10858 0.650421 0.562957 -0.0182063
71 1 8.61564 11.3387 5.78338 -1.08517 -2.78247 -0.835441 0.144245 -4.02946 -0.985011 0.895442 0.517925
64 1 9.83751 10.0068 4.40694 -4.22863 -0.171329 2.52228 0.364639 -4.05997 0.760253 -0.738607 -0.807847
95 1 8.47537 8.41697 5.68917 0.277344 0.229304 -1.42209 0.380287 -4.10046 0.741382 1.18637 -0.0351993
96 1 9.90894 9.89095 7.14533 1.44283 -2.96993 2.64346 0.124444 -4.12097 0.278835 0.15178 -0.392607
98 1 1.48439 1.53196 9.96133 -0.7795 -0.521329 -1.04402 0.0849126 -4.14503 0.148826 -0.116138 0.0571278
107 1 2.91376 2.92476 8.63043 1.76247 -2.08445 -0.145114 0.230156 -4.05063 -0.587543 0.671379 -0.954371
13 1 5.74817 2.98376 11.2882 0.335787 2.33187 3.16787 0.181559 -4.08597 -0.408992 -0.149431 0.214684
100 1 4.20216 1.53333 9.92531 -2.22647 -2.22001 1.2079 0.213393 -4.07455 0.838655 -0.639796 0.545751
102 1 7.02788 1.45545 9.92335 1.78355 -3.34143 0.110487 0.377693 -4.06714 0.705132 0.062754 0.0931377
109 1 5.74142 2.85684 8.54314 0.221525 0.52097 -0.369987 0.151414 -4.10738 -0.338571 0.382072 -0.174095
7 1 8.61073 0.177186 11.3454 0.918381 -2.9229 -3.29807 0.199892 -4.08002 -0.0315082 -0.7026 -0.234966
105 1 11.3539 2.90155 8.46286 0.111035 1.08369 3.24239 0.361018 -4.10502 0.223832 0.157364 1.05151
103 1 8.58694 0.109818 8.5563 -0.981134 0.763424 -3.04752 0.125431 -4.11422 -0.0244274 0.19631 0.568358
104 1 10.1666 1.60902 10.0446 -1.10031 -0.714973 -0.83813 4.47553 -4.01595 -0.829669 -0.562881 -0.580668
111 1 8.67134 2.82641 8.54256 -1.05388 2.21007 -0.422072 0.389677 -4.09025 -0.516532 0.332467 0.266174
19 1 2.88445 5.67131 11.3706 -4.04758 -0.405345 -1.91328 0.250979 -4.03694 0.321075 -0.156722 0.34746
106 1 1.49817 4.33443 9.99253 2.36786 -0.67695 -0.671578 0.0793548 -4.18179 0.00405699 0.0446873 -0.212646
113 1 0.162407 5.73578 8.6385 3.0944 3.28795 -3.45557 0.239269 -4.05987 -0.281414 0.755145 -0.415445
114 1 1.58508 7.19352 10.1229 3.35449 0.620708 1.2279 4.79553 -4.13519 -0.426191 -0.325686 -0.698991
115 1 2.91874 5.65342 8.46239 -1.01969 1.16457 -1.16439 0.421944 -4.03615 -0.378107 0.93591 0.0674747
108 1 4.28617 4.37938 9.88365 2.47765 2.76279 5.93628 0.354562 -4.07087 0.336105 -0.538702 0.8104
110 1 7.24106 4.34952 9.79874 -0.432985 3.07233 3.47057 0.481216 -4.10024 -0.389608 -0.0350049 0.612921
116 1 4.27008 7.11857 10.1069 0.174627 -2.35874 1.43085 0.362873 -4.11649 0.109766 0.088616 -0.805536
117 1 5.63593 5.75165 8.54276 -0.677453 -1.43809 -2.23874 0.315495 -4.05068 0.273833 0.25743 -0.188565
118 1 7.14909 7.00417 9.95274 -2.20778 -2.27917 3.84383 0.411808 -4.05996 -0.382503 1.23407 0.075048
112 1 10.1153 4.42732 10.0232 0.599979 1.09126 1.3582 0.416956 -4.1085 -0.932692 -0.702404 -0.410701
119 1 8.60504 5.77095 8.51153 -0.623627 -2.13663 -2.11052 0.213068 -4.05151 0.160043 -0.301089 0.136051
120 1 9.95657 7.14563 9.9823 -1.55928 -0.714169 0.708124 0.0820948 -4.1315 0.179158 0.129989 -0.225201
25 1 -0.1261 8.60424 11.4208 4.02541 -2.36799 2.13398 0.973816 -4.06613 1.52935 -0.452385 -0.118392
97 1 0.152905 11.2998 8.5619 2.93647 -0.902727 -3.37054 0.258978 -4.10175 -0.251174 -0.0636577 -0.0536926
99 1 2.9109 11.3373 8.51181 0.102886 -4.19103 -0.44704 0.215684 -4.11324 -0.538669 -0.489514 0.768119
121 1 0.0629841 8.50675 8.56669 -1.41373 1.79469 1.11076 0.139927 -4.04291 0.416962 0.335517 -0.0803782
122 1 1.57613 9.82032 10.0641 -1.48689 -2.87996 -0.967946 0.65387 -4.04008 -1.0766 0.948012 -0.897871
123 1 2.91449 8.60152 8.53504 -1.50671 1.62325 1.06787 0.112672 -4.03145 0.177476 -0.376188 -0.0407131
5 1 5.66872 11.4102 11.2988 -1.02011 0.0521664 1.86544 0.137263 -4.07849 0.331012 0.00650907 0.712251
101 1 5.69812 11.3382 8.42469 1.20086 1.81664 1.95214 0.384119 -4.16687 -0.0964254 -0.0449653 0.791919
124 1 4.35853 9.97425 10.0299 -0.805452 2.49749 -0.781372 0.174161 -4.10809 -0.367702 -0.227595 -0.47776
125 1 5.71757 8.58355 8.54335 1.53005 -0.101722 1.80721 0.168347 -4.07215 -0.0966309 -0.406387 0.185097
126 1 7.1575 9.96976 10.0098 3.31632 -2.20584 -0.478212 0.101009 -4.05804 -0.21666 -0.0420275 -0.16052
31 1 8.5653 8.53794 11.4014 -0.551655 2.64344 1.24113 0.0864171 -4.10589 -0.104479 0.0617554 -0.323937
127 1 8.57643 8.61843 8.60516 0.354533 -2.25071 -3.96188 0.267259 -4.13222 -0.291605 -0.581634 0.00793521
128 1 10.0091 9.96579 9.91481 0.964299 -2.1146 0.996602 0.164863 -4.02142 -0.38063 0.548124 0.548524
