ITEM: TIMESTEP
19750
ITEM: NUMBER OF ATOMS
128
ITEM: BOX BOUNDS pp pp pp
8.7317596918329521e-02 1.1376682403081363e+01
9.6731208386996670e-02 1.1367268791612798e+01
8.2649071723937456e-02 1.1381350928275944e+01
ITEM: ATOMS id type x y z vx vy vz c_csym c_peratom fx fy fz
2 1 1.52951 1.43642 1.49039 0.484626 -0.885145 0.563828 0.20426 -4.13901 -0.767882 -0.382521 0.407558
11 1 2.78011 2.80391 0.139835 3.54889 -3.94463 2.41473 0.533214 -3.98523 1.47291 1.32975 -0.294872
41 1 0.117724 2.84509 2.90051 -0.335869 -3.91602 0.72028 0.209267 -4.09424 -0.422958 0.616612 -0.108727
43 1 2.95168 2.91437 2.88693 3.11687 2.974 2.45912 0.0264079 -4.18133 -0.386852 0.187669 0.0343473
4 1 4.31846 1.49098 1.51519 -3.06968 0.531988 1.19112 0.0764601 -4.13646 0.0949209 0.263319 -0.393008
6 1 7.11658 1.50174 1.56726 -4.11337 -1.02798 1.38832 0.130484 -4.16031 0.0741654 0.204789 -0.427264
37 1 5.75028 0.120759 2.95936 -2.3182 2.40866 1.52716 0.12634 -4.12376 0.104668 -0.580849 -0.206541
45 1 5.71609 2.95414 2.92198 -2.83916 4.72722 -0.554673 0.0933421 -4.17343 -0.135461 -0.137189 -0.481243
9 1 11.39 3.03398 0.181624 -5.17406 -1.73008 -3.10659 0.247668 -4.10692 -0.370398 -0.635263 -0.294623
8 1 9.94094 1.55206 1.54261 1.77934 -2.21176 0.357322 0.0708082 -4.06034 0.0914554 -0.250409 -0.289787
15 1 8.5607 2.90127 0.095233 3.2104 -1.17133 -0.64296 0.130927 -4.0882 -0.217533 0.549221 -0.322466
47 1 8.48759 3.02366 2.86391 1.81333 1.67804 1.66924 0.187777 -4.08022 0.913433 -0.228313 -0.238843
10 1 1.48898 4.37577 1.55212 1.36393 5.73971 -1.61288 0.158563 -4.13288 0.713111 -0.707791 -0.695437
17 1 0.068023 5.82172 0.0538283 -0.114136 -1.21317 1.50696 0.131596 -4.11086 0.220337 -0.437701 0.0595103
18 1 1.59357 7.11683 1.44327 1.15807 1.149 2.06416 0.233707 -4.12278 -0.512951 0.889281 0.213234
49 1 0.254482 5.78239 2.82863 -1.94605 -1.88841 2.90935 0.500182 -3.93806 -1.55723 0.403526 0.805665
51 1 2.95542 5.74466 2.9839 -2.2578 2.68297 1.92229 0.226476 -4.152 -0.0185051 0.073988 -0.390517
12 1 4.33231 4.35764 1.53372 2.48934 -1.18195 1.99283 0.123557 -4.05189 -0.569046 -1.00325 -0.462763
14 1 7.06444 4.3346 1.46031 -0.36324 -0.567082 2.40195 0.0758562 -4.09572 1.05773 -0.268463 0.64609
20 1 4.27496 7.1634 1.46903 1.03736 0.993407 -3.15515 0.211267 -4.12219 -0.264885 -0.166165 0.217245
21 1 5.70969 5.67312 0.188765 1.97927 -0.350058 1.85448 0.379664 -4.09121 -0.185682 0.878299 -1.04221
22 1 7.16814 7.03616 1.47374 3.40743 -1.18811 0.290826 0.283368 -4.04117 0.0282259 0.727029 0.284778
53 1 5.65018 5.75518 2.84163 -3.1215 0.460974 0.627709 0.191448 -4.17777 0.222621 0.331565 0.820802
16 1 9.96257 4.46761 1.54704 2.17823 -2.31219 -1.81154 0.339865 -4.10786 0.208135 -0.481616 -0.197276
23 1 8.56026 5.76894 0.0483968 -2.56037 1.97072 2.83986 0.0377538 -4.12115 0.000421032 -0.32168 0.18263
24 1 9.98461 7.17383 1.52951 2.79852 1.54118 0.509431 0.113202 -4.14102 -0.00836881 0.075029 0.1931
55 1 8.47483 5.70091 2.91751 -0.851618 1.95455 0.0856263 0.140387 -4.04609 0.0103026 0.469941 -0.0239715
1 1 0.0763714 11.3565 0.0541286 -2.17863 -0.456273 -0.10119 0.0978023 -4.07211 -0.130012 0.00158327 0.350114
3 1 2.86867 11.3313 0.0596535 1.35129 2.71018 -0.154889 0.117243 -4.05602 0.200594 0.0792255 0.0372399
35 1 2.9439 11.4077 2.92221 -3.28103 4.18758 3.10218 0.115311 -4.07074 0.253231 -0.810378 -0.626379
26 1 1.48379 9.89293 1.54602 1.76538 -1.89303 1.82294 0.199235 -4.1344 0.242193 0.313277 -0.204067
27 1 2.95256 8.60672 -0.0118619 -2.27044 -4.06464 0.144182 0.30422 -4.06594 -0.0955844 0.183634 0.476001
59 1 2.95349 8.53338 3.00505 -2.28548 -0.696978 1.84422 0.202597 -4.03459 -0.166351 -0.219938 -0.454134
28 1 4.33054 9.94792 1.50089 1.15032 3.26464 -1.31751 0.0913615 -4.15792 -0.189011 0.322246 0.126056
29 1 5.70926 8.47856 0.167606 -2.73712 1.88415 -1.27218 0.277386 -4.07264 0.723371 0.275221 -0.543311
30 1 7.20037 10.0259 1.56245 5.44043 -3.5792 -2.57493 0.226404 -4.04593 -0.630893 -0.620131 -0.65675
61 1 5.71405 8.55815 2.86515 -1.14948 0.0430123 0.0875724 0.168837 -4.12289 0.116803 -0.419944 0.276657
33 1 11.3257 11.3704 2.96156 0.822556 2.06316 -0.853778 0.256199 -4.14587 0.174208 -0.263487 -0.192754
39 1 8.5761 11.3337 2.90493 -1.18408 -0.819965 -0.536922 0.151349 -4.17443 0.553899 0.00717558 0.108526
57 1 11.3538 8.63727 2.99864 -0.833413 -3.22835 -2.32029 0.455089 -3.9904 0.466698 -0.827121 -0.413008
32 1 10.0505 9.94231 1.44797 -2.12614 0.785436 0.902552 0.301424 -4.05476 -0.635777 0.0474088 0.0352158
63 1 8.53661 8.59859 2.99083 3.55391 1.46594 1.9276 0.224222 -4.14022 0.151491 -0.300208 -0.577681
34 1 1.54528 1.47807 4.15751 -5.52187 0.467758 -4.87863 0.576753 -3.99276 -0.54686 0.226987 1.35448
66 1 1.47154 1.50128 7.2298 0.985616 0.116601 0.436035 0.232869 -4.0206 0.0107686 0.215125 -0.189444
75 1 2.82636 2.93913 5.66083 -0.10826 1.84335 -2.46648 0.293098 -4.12149 0.36747 -0.177194 0.334398
36 1 4.36004 1.49412 4.23869 2.15078 -2.06376 0.257192 0.213661 -4.09502 -0.539913 0.207274 0.705542
38 1 7.23218 1.58805 4.15737 -1.53857 -0.432967 0.391375 4.73312 -4.07892 -0.721627 -0.800648 1.2785
68 1 4.31184 1.58114 7.12143 2.13427 -2.02901 -1.07572 0.169907 -4.05616 -0.158128 0.451612 -0.204132
70 1 7.17495 1.52058 7.10086 2.06008 -0.705906 2.35938 0.149318 -4.0968 -0.140334 0.0456611 -0.880654
77 1 5.69321 2.97796 5.57192 1.31961 -0.194969 -2.67575 0.390589 -4.03363 0.00579985 -1.39974 1.15457
73 1 11.3302 2.80179 5.72503 0.783111 -2.35029 -5.08546 0.242685 -4.14116 0.462102 0.452216 -0.443714
40 1 9.92585 1.50299 4.30439 -2.86631 1.65726 -3.585 0.116882 -4.04501 0.264172 0.379787 -0.55907
72 1 9.95216 1.5013 7.14711 -1.76082 1.24616 -0.551753 0.0614088 -4.13326 -0.321076 -0.286008 -0.00561934
79 1 8.636 2.93507 5.64559 1.30411 0.0940804 -1.22794 0.243495 -4.09736 -0.525874 0.237207 0.426255
42 1 1.48905 4.33519 4.26114 -1.59408 0.4424 -0.35158 0.150881 -4.05404 -0.312277 0.0250251 0.330228
50 1 1.5207 7.0653 4.30961 0.210802 -2.04708 -0.0750464 0.189926 -4.13303 -0.225743 0.657577 0.396837
74 1 1.36108 4.23593 7.22774 -3.68005 0.528754 6.70304 0.493231 -3.9953 0.754353 -0.182089 -0.737356
82 1 1.39307 7.09341 7.23009 1.89411 -0.630741 -2.31067 0.333861 -4.03984 1.17493 0.524036 -0.674689
83 1 2.93513 5.71003 5.78036 0.553356 -1.53241 -0.234305 0.23398 -4.14951 -0.833063 -0.700779 0.547815
44 1 4.3222 4.35093 4.26469 -2.17005 6.80774 3.80063 0.0807358 -4.09469 0.0603672 0.0430771 0.433359
46 1 7.074 4.2833 4.2996 -1.65752 0.321493 -0.969939 0.213675 -4.08995 1.07606 1.16429 -0.240285
52 1 4.21381 7.1626 4.52247 -2.65331 1.46227 -1.98373 5.10247 -4.02579 1.2621 0.267915 -1.2939
54 1 7.09096 7.14757 4.28341 -0.841708 1.45835 1.7569 0.136333 -3.99206 0.416836 -0.268159 0.162017
76 1 4.49312 4.27021 7.11627 -1.28093 -1.13125 -1.16751 4.68417 -4.0591 -1.18255 -0.211109 -0.317677
78 1 7.06124 4.24899 7.12676 2.9399 -0.115997 0.429892 0.35595 -4.12065 1.02545 0.68482 -0.252515
84 1 4.3155 7.17988 7.15085 0.379715 -0.078332 -1.91456 0.156834 -4.06578 0.21391 -0.262997 -0.16161
85 1 5.78675 5.75168 5.73795 -1.24697 -0.0606145 -0.0315061 0.178509 -4.09464 -0.286576 0.119336 -0.0186336
86 1 7.22166 7.13348 7.23052 -1.50462 3.38437 -1.45507 0.237932 -4.11186 -0.645265 -0.0160533 -0.470192
81 1 11.357 5.67401 5.8188 1.04046 -0.100323 5.22359 0.199867 -4.12187 0.134839 0.228637 -0.260738
48 1 9.97693 4.42623 4.23495 -1.04409 -0.742184 -1.18365 0.454704 -4.0985 0.501269 -0.680492 0.130713
56 1 9.95312 7.05346 4.29421 1.92308 3.20133 1.10546 0.298756 -4.10275 0.398212 0.138197 -0.0289681
80 1 9.95451 4.20372 7.16688 3.50524 -2.4015 -4.80654 0.228342 -4.0765 0.202162 0.700637 0.0210647
87 1 8.63814 5.758 5.8131 2.75392 0.368061 -2.36591 0.366313 -4.06316 -0.865427 -0.413847 -0.422817
88 1 9.98126 7.2155 7.2012 -0.0292284 0.591273 0.398404 0.295468 -4.14527 0.140146 -0.409121 0.194898
65 1 0.056316 11.3696 5.76342 0.722503 -1.18954 -4.12142 0.0797533 -4.1747 0.544546 -0.0232218 -0.187481
67 1 2.86099 11.4292 5.81984 1.06803 -1.78859 2.40943 0.469374 -4.16691 0.307528 -0.00602962 -0.620342
58 1 1.57575 9.99007 4.314 -0.741534 -0.301584 -1.04248 0.270358 -4.10427 -0.29149 -0.0316885 0.13633
89 1 0.129466 8.47583 5.77318 3.08864 -1.41807 -1.88662 0.122112 -4.0962 -0.296095 0.403657 -0.533131
90 1 1.49862 9.88851 7.17942 0.0547022 0.611273 -0.64284 0.0959744 -4.04897 -0.402329 0.179884 0.113318
91 1 2.81016 8.54262 5.77695 -1.57936 0.795479 4.67929 0.262033 -4.10068 0.287066 0.0380247 0.235717
69 1 5.69424 11.4276 5.75165 0.691451 0.85456 2.48389 5.01292 -4.04832 0.709882 0.0480643 -0.641042
60 1 4.29847 9.94064 4.35042 -1.36647 -1.43883 -1.51065 0.0771647 -4.14288 -0.00936882 0.081837 0.199312
62 1 7.10225 9.93404 4.30114 1.89198 -0.231439 -1.76183 0.163833 -4.06059 0.0420334 0.455213 0.324152
92 1 4.39967 9.97569 7.04038 0.597879 0.32757 1.3237 0.273514 -4.06059 -0.561939 -0.357525 0.345038
93 1 5.8469 8.56844 5.74425 -4.10604 -0.062292 1.12929 0.241899 -4.11008 -0.421778 -0.228406 0.222306
94 1 7.30862 10.0091 7.11445 0.404257 2.68237 0.280874 0.578289 -4.12661 -0.70101 -0.171933 0.0925279
71 1 8.62279 11.3054 5.57161 4.88897 -1.89795 -1.94339 0.510862 -4.02842 -0.805842 0.839568 1.43775
64 1 10.033 9.92801 4.41938 1.30803 0.206879 0.168587 0.234044 -4.00589 -0.0591087 -0.390333 -0.755227
95 1 8.58746 8.43092 5.69371 3.45571 1.37887 -2.85556 0.352835 -4.15645 -0.0922116 0.471297 0.000672047
96 1 9.92885 9.89017 7.2776 0.862495 0.804997 1.82595 0.391309 -4.15977 0.108962 0.198644 -0.690729
98 1 1.47611 1.53019 10.0145 0.277327 1.68015 1.74938 0.105091 -4.07841 0.0273693 -0.17369 -0.889857
107 1 2.96543 2.93623 8.52414 6.14452 0.490128 -0.303236 0.179405 -4.07385 -0.631637 -0.293099 0.121315
13 1 5.78739 2.99074 11.3222 1.12957 1.44565 2.26886 0.24126 -4.0358 -0.627226 -0.241071 0.614031
100 1 4.38132 1.51128 9.96164 -1.97813 -3.81154 -1.09738 0.155446 -4.11684 -0.612347 -0.270345 0.104283
102 1 7.03778 1.56 9.96619 2.95107 -0.723067 -1.31865 0.232156 -4.0907 0.888052 -1.11949 0.349506
109 1 5.83893 2.89729 8.56045 -0.0581089 1.49575 -1.00579 0.29155 -4.0875 -1.2464 0.305327 -0.432937
7 1 8.49112 0.155757 11.3716 -2.04983 -2.55345 0.8697 0.139637 -4.06039 0.377335 -0.439791 0.223537
105 1 11.3016 2.90357 8.60515 1.74922 -2.65557 -1.44868 0.0828293 -4.12045 0.229857 -0.185083 0.181038
103 1 8.53498 0.206912 8.55595 0.0180231 -1.42912 -0.246262 0.311262 -4.0482 -0.135449 -0.230337 0.353967
104 1 9.97789 1.44704 10.0311 0.665205 -0.240838 -2.26927 0.295974 -4.01275 0.0468214 0.52829 -0.492938
111 1 8.47241 2.89578 8.47553 -5.29577 0.989506 -0.132637 0.191458 -4.08593 0.630641 0.134395 1.16875
19 1 2.95254 5.66117 11.462 0.0622649 1.34421 -3.16581 0.261006 -4.04777 -0.259423 0.341392 -0.724479
106 1 1.4701 4.37498 10.0166 1.22234 -1.47537 -0.435475 0.163494 -4.11057 0.398714 -0.747932 0.0103582
113 1 0.191868 5.70524 8.60736 -0.478093 -0.764019 -1.20181 0.314319 -4.12127 -1.46004 0.110076 0.0065742
114 1 1.60793 7.18472 9.96411 2.26607 0.15567 0.350404 0.324964 -4.12875 -0.0468119 -0.880316 0.0785356
115 1 2.87641 5.57982 8.4299 4.31 2.68062 0.676615 0.800978 -4.09194 0.301399 0.996212 0.462291
108 1 4.26403 4.28051 9.92445 -0.178509 -0.458539 2.67954 0.198629 -4.12219 0.58916 0.107748 0.521783
110 1 7.09069 4.44306 9.87768 -1.71269 -0.605183 3.24231 4.56881 -4.14428 0.275195 -0.621916 0.34109
116 1 4.34899 7.07645 9.98541 -3.49249 0.15321 -3.82184 0.130253 -4.10812 0.0181482 -0.0359221 -0.163488
117 1 5.64216 5.72894 8.50414 -3.08162 -2.12218 -0.246119 0.293956 -4.0622 0.457421 0.221972 0.136873
118 1 7.12555 7.01029 9.89189 -0.999123 -3.3083 3.4345 4.71567 -4.10004 -0.472397 0.884238 0.591792
112 1 9.96716 4.38445 9.91609 -1.80201 -0.443308 -1.54821 0.150417 -4.01475 -0.0821274 -0.634585 0.425161
119 1 8.5952 5.72131 8.54819 -1.83631 1.08138 -3.63349 0.157488 -4.07276 -0.00375221 -0.186395 -0.482071
120 1 9.99015 7.13955 9.95478 -1.78354 3.42836 -3.01218 0.0786846 -4.18907 -0.455653 -0.20338 0.0704954
25 1 0.0988492 8.5556 11.2375 -1.20084 1.60345 1.56971 0.337979 -4.06948 0.0534836 -0.207367 0.901954
97 1 0.0843548 11.3734 8.51285 -3.02669 -3.28197 -0.975396 0.185576 -4.07618 -0.245185 -0.20174 0.413463
99 1 2.94023 11.3171 8.45747 2.61972 -2.20461 2.24573 0.335302 -4.11719 0.0318812 0.182449 0.851965
121 1 0.104528 8.48119 8.64302 1.6037 -1.84765 -0.701671 0.231448 -4.10629 0.281696 0.422887 -0.42483
122 1 1.42128 10.0098 9.92856 -1.77285 0.754074 -1.97627 0.299367 -4.09293 0.548095 -0.234209 0.0434152
123 1 2.99559 8.4891 8.58521 0.423672 -1.38977 0.618161 0.258064 -4.09286 -0.277226 0.944158 -0.203811
5 1 5.7337 11.3999 11.5281 0.164434 -0.692135 1.23286 0.293986 -4.02169 0.0839668 -0.152422 -0.639906
101 1 5.68684 11.456 8.3618 -1.58502 0.989442 -0.924181 0.701912 -4.08923 0.483275 -0.618706 1.0774
124 1 4.41214 9.99187 10.052 -1.6252 -0.0643777 0.164885 0.489794 -4.0454 -0.238599 -0.0163602 -0.790288
125 1 5.75611 8.60725 8.4563 1.69741 -2.75967 4.71437 0.354553 -4.04996 -0.134539 -0.149069 0.506539
126 1 7.00861 10.045 9.94587 0.553653 1.71534 0.288853 5.00779 -4.06473 0.649379 -0.185445 0.0662342
31 1 8.52907 8.49944 11.3887 -0.00621652 0.778269 3.13498 0.152781 -4.05762 -0.27663 0.332422 -0.0652735
127 1 8.47795 8.52739 8.68149 -0.689813 -1.56028 -1.79092 0.437078 -4.02463 -0.442053 -0.488338 -0.772189
128 1 9.85007 9.87123 9.91465 1.77501 0.00793951 -0.0993196 0.377179 -4.13038 0.920982 1.36982 0.734753
