ITEM: TIMESTEP
6250
ITEM: NUMBER OF ATOMS
128
ITEM: BOX BOUNDS pp pp pp
8.5309819915892149e-02 1.1378690180083829e+01
1.0060477991889272e-01 1.1363395220080864e+01
8.2649834386162149e-02 1.1381350165613719e+01
ITEM: ATOMS id type x y z vx vy vz c_csym c_peratom fx fy fz
2 1 1.52318 1.49524 1.49809 0.667629 -4.34259 -2.45579 0.106346 -4.19624 -0.51859 -0.0640222 0.197555
11 1 2.89859 2.90007 0.230078 1.12295 -2.66296 -2.80648 0.307016 -4.04468 -0.0222627 0.322848 -0.650928
41 1 0.0725742 2.89066 2.94977 -2.54403 -1.33257 3.2781 0.168819 -4.08323 -0.351449 0.0884418 -0.245094
43 1 3.07517 2.82384 2.88656 -1.42463 3.56747 4.55239 0.632882 -4.1297 -0.942535 0.372328 -0.247616
4 1 4.28958 1.38038 1.44358 -0.597551 -1.02714 0.59193 0.350533 -4.10796 -0.057447 0.37195 -0.268132
6 1 7.21286 1.45281 1.40222 0.874991 -0.90693 0.398285 0.352358 -4.04724 -0.233799 0.0982704 0.564405
37 1 5.62799 0.170041 2.89443 -2.55245 -3.37585 0.722183 0.383069 -4.03533 1.34508 -0.435066 0.159229
45 1 5.72656 2.88031 2.84419 -0.751859 -1.18229 0.804058 0.0653314 -4.18303 0.179615 0.17214 0.149626
9 1 11.315 2.93337 0.193423 1.21775 2.81247 2.79522 0.304708 -4.01089 0.377195 -0.0475219 -0.499451
8 1 10.0233 1.41234 1.48824 -0.112025 1.90148 -0.812491 0.288212 -4.0922 -1.04338 1.13051 -0.5633
15 1 8.55936 2.96896 0.0451813 -0.279685 -1.63365 -0.99301 0.208499 -4.05734 0.467006 -0.379835 0.0996739
47 1 8.63827 2.9459 2.91906 1.46357 0.472484 -1.67838 0.114852 -4.17374 -0.0856779 -0.265868 -0.519583
10 1 1.48934 4.34941 1.67799 -0.501152 -0.352299 -1.36755 5.22122 -4.06626 0.367388 -0.0056179 -0.995169
17 1 0.0655143 5.80274 0.127703 3.50719 1.46413 -2.79251 0.126492 -4.10175 0.168961 -0.252449 0.429266
18 1 1.58843 7.18042 1.43674 3.59141 -2.41835 -0.28694 0.27125 -4.03505 -0.456634 -0.484995 0.55471
49 1 0.0869908 5.80767 2.92152 -2.40359 -2.20538 0.582766 0.140205 -4.07277 -0.0838301 0.156494 -0.0506794
51 1 3.00304 5.80066 2.92755 -4.39279 -1.81423 2.0273 0.290818 -4.05654 -0.784035 -0.487873 -0.0918746
12 1 4.30005 4.30626 1.52179 3.71551 -1.26545 0.164281 0.147283 -4.04493 -0.038318 0.57211 -0.0697623
14 1 7.21748 4.3283 1.48274 -1.14063 -2.00608 2.36288 0.132568 -4.04725 -0.281386 -0.0185956 -0.299473
20 1 4.41618 7.1087 1.5473 0.211286 2.09966 -2.13381 0.301414 -4.14249 -0.454987 0.476328 -0.575865
21 1 5.69055 5.69466 -0.0233877 -3.01678 1.84313 -2.29083 0.325626 -4.11828 0.253318 -0.27208 0.347282
22 1 7.07538 7.19735 1.4833 2.94622 -2.31076 1.50043 0.106601 -4.1675 0.199317 0.0376571 0.0434703
53 1 5.73668 5.6295 2.89574 0.27607 -1.08177 1.15909 0.234825 -4.09465 0.407999 -0.108671 -0.082911
16 1 9.99157 4.37071 1.48616 2.99472 -0.892938 3.17873 0.0487275 -4.09836 -0.0479809 0.0349467 0.271804
23 1 8.59924 5.80172 0.124442 -1.17063 -1.56845 -1.37353 0.112268 -4.08463 -0.321112 -0.221037 -0.459207
24 1 9.88184 7.28511 1.59191 -1.75443 -1.0437 -3.19672 0.439726 -4.03817 -0.065342 -1.23919 -1.02826
55 1 8.57129 5.73464 2.88795 0.523814 0.554989 -1.46208 0.115258 -4.06093 -0.336829 0.60601 -0.464268
1 1 0.079985 11.2794 0.139932 -4.48776 1.22918 2.34061 0.26058 -4.06686 0.618356 0.362231 -0.549703
3 1 2.84888 11.3316 0.0253728 0.717293 1.18955 -1.20757 0.11312 -4.07929 0.0507902 -0.27805 0.321926
35 1 2.90714 11.3564 2.89496 0.722596 -0.34735 1.13001 0.11187 -4.16369 -0.147128 -0.345651 0.432835
26 1 1.43719 9.98278 1.54204 5.70917 4.30909 -2.40749 0.0871882 -4.06161 0.130905 -0.256209 0.116136
27 1 2.85566 8.61484 0.11507 0.0382668 -0.576596 -1.16744 0.16861 -4.07852 0.410832 -0.169363 0.0660105
59 1 2.9122 8.58578 2.90857 -1.31599 -1.44542 2.67336 0.113218 -4.12803 0.217657 -0.237809 0.53609
28 1 4.32629 9.99352 1.51342 5.92861 2.97783 -1.94264 0.129535 -4.1336 0.0601813 -0.235856 -0.385974
29 1 5.64427 8.62444 0.0295305 -3.16567 3.01902 -1.24349 0.23356 -4.08874 0.354397 -0.320434 0.308737
30 1 7.08856 9.93734 1.42185 0.117674 -2.10988 0.812469 0.129594 -4.16849 0.14914 0.344666 0.901307
61 1 5.66052 8.55023 2.94742 0.890038 -0.239412 0.904132 0.287696 -4.01266 0.347471 0.440544 -0.0281846
33 1 11.3001 11.3639 2.86806 -1.10638 -0.614838 -2.47886 0.167402 -4.08312 0.591107 -0.430739 0.650442
39 1 8.60868 11.4122 2.99305 0.69043 -0.760673 1.98825 0.361629 -4.03921 -0.197586 -0.611473 -0.575885
57 1 11.2989 8.45706 2.96465 1.7875 -1.52508 -2.81293 0.332257 -4.09905 1.16637 0.976719 -0.259716
32 1 9.93293 9.99672 1.41709 0.0143474 1.81775 -0.226335 0.242754 -4.1228 -0.374247 -0.436674 0.895641
63 1 8.5606 8.65217 2.94067 0.475293 0.322325 2.89362 0.149777 -3.98335 -0.104144 -0.177486 0.0540764
34 1 1.55324 1.54876 4.25224 -2.70451 0.486314 -0.795099 0.252749 -4.07624 -0.530474 -0.507941 0.401643
66 1 1.48142 1.41939 7.1176 -1.42843 -2.72053 1.21055 0.199591 -4.07714 -0.185557 0.926661 -0.331556
75 1 2.96287 2.81152 5.72579 -1.4956 -0.420217 1.88713 0.168297 -4.10165 -0.778236 0.3406 0.449254
36 1 4.30555 1.50818 4.34369 -0.705065 0.0638487 -0.24061 0.138567 -4.07491 0.574586 -0.681949 0.0704784
38 1 7.1902 1.57229 4.21043 2.2268 3.79989 -1.26508 0.296494 -4.02237 -0.344238 -0.259038 0.775483
68 1 4.39074 1.56594 7.21417 -0.645682 2.78977 -2.5806 0.307616 -4.15798 -0.134685 -0.596951 -0.461689
70 1 7.23105 1.64317 7.188 0.874443 3.18896 -4.70342 0.373083 -4.06978 -0.489989 -0.19555 -0.104956
77 1 5.71871 2.89192 5.68 0.00434708 4.87312 2.98021 0.126342 -4.07453 0.265472 -0.0530459 -0.291914
73 1 11.2704 2.98044 5.75234 -0.770295 0.76571 -0.880316 4.54139 -4.11717 0.613318 -0.331623 0.0827339
40 1 9.96823 1.52369 4.3213 3.22581 0.837349 2.11004 0.0761743 -4.04534 0.586338 -0.597754 -0.0836411
72 1 9.99642 1.39746 7.17152 -1.44216 1.00635 -2.50777 0.498572 -4.06559 -0.00139596 0.452537 0.273947
79 1 8.71482 2.92691 5.64034 2.95846 0.658013 -0.230189 0.564089 -4.13745 -1.11631 0.246892 0.822156
42 1 1.51806 4.24015 4.33265 0.388761 -0.666362 2.78572 0.165925 -4.13188 0.119333 0.326847 -0.350643
50 1 1.49048 7.08629 4.40649 1.08133 0.0961191 0.599933 0.226733 -4.04908 0.233941 0.124867 -0.614107
74 1 1.51493 4.32417 7.10616 -0.86125 -0.949626 -3.10513 0.114968 -4.05216 0.280867 -0.240955 -0.00478158
82 1 1.41947 7.15497 7.2021 -1.20183 3.03649 2.81507 0.319404 -4.09245 1.24524 -0.589174 -0.626645
83 1 2.8658 5.64789 5.7332 1.59603 -0.324803 4.4404 0.107541 -4.07735 0.480411 0.72317 -0.0252068
44 1 4.2545 4.2371 4.34723 -0.828285 3.34414 4.87276 0.260863 -4.16619 0.380335 0.487205 -0.108635
46 1 7.24977 4.33819 4.26192 -4.11867 0.730978 -0.0444188 0.169319 -4.11712 -0.528093 -0.278467 0.450967
52 1 4.45592 7.02548 4.25094 4.5098 -0.0833709 -0.455897 0.568328 -4.02474 -0.474172 0.796225 1.03892
54 1 7.18738 7.18939 4.29586 1.32611 3.83482 0.184414 0.150437 -4.17641 -0.471544 -0.306682 -0.116956
76 1 4.26987 4.20356 7.12208 -1.35643 -1.59479 2.35202 0.146372 -4.12724 0.760514 0.711723 -0.0379257
78 1 7.10323 4.23357 7.12074 1.51479 0.0762707 0.598086 4.99262 -4.11793 0.234768 0.365449 0.207068
84 1 4.25815 7.09685 7.04679 1.96832 -0.261644 3.39346 0.239657 -3.94395 0.198874 0.0978142 0.238503
85 1 5.7216 5.59633 5.71663 0.0368083 3.2868 -1.61215 0.150235 -4.03101 0.212578 0.791779 0.0449934
86 1 7.19223 7.03086 7.14851 -3.60873 1.24607 -0.0937978 0.306737 -4.0408 -0.725957 0.3299 -0.126385
81 1 11.4234 5.75267 5.81329 -1.79381 -1.17196 -2.19186 0.216557 -4.14274 -0.12732 -0.213052 -0.704136
48 1 9.9456 4.49073 4.26886 -0.190491 -0.154006 -3.01498 0.439816 -4.13684 0.781252 -0.640541 0.309096
56 1 9.9431 7.16608 4.40064 -1.51516 3.34555 1.43986 0.100376 -4.239 -0.428897 -0.0825986 -0.137557
80 1 9.8981 4.47704 7.03469 -4.47146 -1.71558 -1.13808 0.744205 -4.034 0.15923 -0.858622 0.96102
87 1 8.54397 5.7943 5.72032 -1.77423 -1.26368 -2.17485 0.0959667 -4.0459 -0.418883 -0.32583 -0.410562
88 1 9.9678 7.20312 7.09347 0.426872 -0.135727 -1.83455 0.277529 -4.16112 -0.137842 -0.856455 1.04418
65 1 0.130347 11.3586 5.73331 -2.71135 1.75759 -0.473846 0.133314 -4.02259 -0.545677 0.602966 -0.662512
67 1 2.95563 11.3022 5.73515 1.95887 0.500205 1.4787 0.191525 -4.14851 -0.206156 0.351505 -0.145441
58 1 1.35576 9.9478 4.29143 1.56146 -0.142778 -0.777625 0.374974 -4.01601 0.680388 0.250842 0.114424
89 1 0.0968268 8.44145 5.74877 -1.24002 2.07705 0.389932 0.28615 -4.06009 0.336041 0.727106 -0.436395
90 1 1.38569 9.9568 7.10321 -2.35272 -1.76438 -0.46758 0.387043 -4.2227 0.788713 -0.706021 0.105878
91 1 2.94188 8.60543 5.64749 -0.789197 -0.297525 0.202714 0.341335 -4.10583 -0.20752 -0.376367 0.237541
69 1 5.83603 11.4184 5.83477 1.76019 -2.49429 -1.52515 0.304142 -4.12099 -0.647636 0.405549 -0.862472
60 1 4.44354 10.0408 4.36592 -3.83031 -1.28346 -2.49582 0.367176 -4.00599 -0.386158 -0.434123 -0.217071
62 1 7.14435 9.97663 4.32554 1.9082 0.0654951 -1.21902 0.119617 -4.06452 -0.317532 0.115819 -0.218142
92 1 4.29557 10.0157 7.17984 1.51069 -0.514665 -1.12882 0.185094 -4.02264 0.740702 -0.369246 -0.304145
93 1 5.76582 8.55911 5.79924 -1.74838 4.03736 1.63416 0.134004 -4.15659 -0.180037 -0.14238 -0.133547
94 1 7.01981 10.0279 7.23897 -0.416014 -0.0203859 2.35385 0.329925 -3.95422 1.20368 -0.521322 -0.118927
71 1 8.50662 11.4237 5.79771 -0.0172656 2.19778 -0.750812 0.233372 -4.1144 0.265056 -0.387895 -0.30929
64 1 9.98707 9.90826 4.42048 2.38374 -2.25907 -0.74405 0.173516 -4.14748 -0.221657 0.328797 -0.246935
95 1 8.51823 8.5618 5.82781 4.26864 -2.08418 -1.29464 0.224843 -4.09072 -0.299067 0.589047 -0.149054
96 1 10.0944 9.92783 7.19493 -0.376078 -0.599832 0.302728 4.60934 -4.2131 -0.738036 0.260116 -0.23238
98 1 1.48942 1.53249 9.9638 1.73277 2.07225 -1.60496 0.104302 -4.14449 -0.124477 0.113519 0.137297
107 1 2.89734 2.87991 8.45148 4.23037 0.598488 -6.45254 0.31206 -4.06387 -0.908663 0.0537925 0.821
13 1 5.59511 2.88714 11.4598 1.52541 -1.99002 -3.55504 0.530992 -4.13774 0.900261 0.113324 -0.461841
100 1 4.2028 1.47966 9.97049 0.305071 -2.91024 3.31878 0.246627 -4.15641 0.0823609 0.163035 -0.0144213
102 1 7.13392 1.63272 9.97295 3.97691 2.33839 2.26135 0.320942 -4.08837 0.254661 -0.552286 0.0691193
109 1 5.70376 2.91541 8.6534 -0.660994 2.21227 1.75578 0.221281 -4.06473 0.205288 -0.065719 -0.761786
7 1 8.56371 0.0819945 11.3032 -2.14744 3.18608 -5.51084 0.158979 -4.07848 0.224699 0.00275508 -0.136858
105 1 11.3936 3.03759 8.47059 -0.584488 2.61323 1.17112 0.524438 -4.10156 -0.343712 -0.666263 0.148032
103 1 8.48976 0.0919614 8.5628 -2.33982 0.291478 0.680415 0.290049 -4.08827 0.213866 0.127192 0.261499
104 1 10.1832 1.43518 10.0069 -4.81299 -0.285736 -0.0186042 4.86583 -4.04696 -1.49593 0.729856 -0.246561
111 1 8.65351 2.97028 8.5689 -1.65011 -4.4285 -1.01415 0.309741 -4.08593 0.525656 -0.543902 -0.138384
19 1 3.038 5.7559 11.3299 2.23983 3.40692 -1.79566 5.20887 -4.06871 -0.687392 -0.384958 0.619433
106 1 1.452 4.32517 10.0754 0.882925 1.21005 -1.04859 0.326914 -4.08892 0.463441 -0.31233 0.0322873
113 1 0.143005 5.62143 8.57408 -0.744802 -3.95147 0.557191 4.97825 -4.15114 -0.414806 0.56337 -0.261921
114 1 1.5025 7.11068 9.98447 0.0207534 -0.196426 2.33949 0.0832477 -4.14095 0.171706 0.398245 -0.16512
115 1 2.86407 5.66441 8.56469 1.92133 -1.66983 2.00876 0.0941267 -4.15099 0.449099 0.30802 0.103928
108 1 4.22666 4.13931 9.93287 -0.0888433 -1.50566 1.56591 0.742641 -4.01331 -0.0332196 1.05254 0.322067
110 1 7.17412 4.28557 9.88967 1.0834 4.09613 -4.1436 0.338169 -4.0318 -0.383562 0.274884 0.796136
116 1 4.28624 7.26746 10.0286 2.04649 1.0678 0.194 0.49437 -4.01173 -0.4627 -0.487675 -0.692024
117 1 5.64446 5.81942 8.59048 -1.65272 -1.27828 1.68927 0.475344 -4.12529 -0.0146777 -0.780502 -0.214554
118 1 7.12214 7.25132 9.96814 -2.6434 -2.07124 -0.809223 0.232263 -4.03767 0.251146 -1.0171 0.504539
112 1 9.94751 4.36888 9.9912 2.01953 -3.11331 1.35004 0.10976 -4.07031 0.319277 -0.205077 0.215678
119 1 8.49593 5.66393 8.55364 4.00507 0.0318834 0.961497 0.293544 -4.08038 0.473535 0.906469 0.238399
120 1 10.0574 7.12557 9.99746 -4.46469 -0.62036 -1.12188 0.2141 -4.0726 -0.687109 0.178751 -0.708064
25 1 0.0552572 8.55604 11.4691 1.43707 -2.72685 -1.55764 0.289133 -4.13593 0.0457365 -0.027495 -0.256605
97 1 0.167194 11.3654 8.56502 -1.6992 2.83476 0.88494 0.16019 -4.00645 -0.210615 0.125009 -0.181245
99 1 2.8469 11.3408 8.42356 0.336269 -1.21578 3.41868 0.308564 -4.08752 0.151484 -0.0337356 1.0697
121 1 0.132285 8.46471 8.55942 -0.869301 -3.72359 -2.1084 0.173522 -3.957 -0.736803 0.340196 0.365298
122 1 1.40385 9.87686 9.91318 -5.60175 -0.0630417 2.26198 0.250294 -4.18776 0.81528 0.380299 0.209908
123 1 2.94148 8.58339 8.44114 -1.1732 0.999586 3.75635 0.398253 -4.07059 -0.296601 -0.491983 0.538332
5 1 5.7541 11.3035 11.238 1.48099 -3.69419 0.979053 0.396798 -4.0793 -0.639129 0.908803 0.864736
101 1 5.70148 11.4073 8.63151 -1.7093 -3.25085 -1.52845 0.107776 -4.14074 0.353195 -0.0244687 -0.38474
124 1 4.25683 9.93455 9.92296 2.03774 -2.23246 -3.7859 0.164483 -4.09863 0.17579 0.173535 -0.227914
125 1 5.79511 8.48715 8.5133 2.10549 -2.92496 1.78714 0.442579 -4.22749 -0.946411 0.460328 -0.0753615
126 1 7.11923 9.91459 10.0224 -1.69727 0.39458 2.82993 0.245512 -4.08723 -0.000589775 0.157133 -0.977054
31 1 8.55191 8.59782 11.2595 -0.707166 2.60755 -3.24944 0.269358 -4.07989 0.604746 -0.474868 0.817289
127 1 8.47649 8.54584 8.54859 2.90496 0.634904 0.686161 0.234321 -4.11467 0.408372 0.0443008 -0.189462
128 1 10.0245 9.94754 9.83551 -1.62827 -0.46064 4.8383 0.396497 -4.1842 -0.116153 -0.0884583 0.715363
