ITEM: TIMESTEP
11500
ITEM: NUMBER OF ATOMS
128
ITEM: BOX BOUNDS pp pp pp
9.1015308987044463e-02 1.1372984691012718e+01
8.7986734332406336e-02 1.1376013265667503e+01
8.2649537795296990e-02 1.1381350462204585e+01
ITEM: ATOMS id type x y z vx vy vz c_csym c_peratom fx fy fz
2 1 1.40402 1.47415 1.52578 2.62526 0.231649 -2.0709 0.15984 -4.08025 0.669357 0.442675 -0.0964768
11 1 2.91945 2.93066 0.0989183 1.74445 -2.93917 -2.31898 0.0289289 -4.19333 -0.219519 0.106898 -0.10936
41 1 0.0326075 2.79711 2.99673 4.8636 -3.02794 -0.0357786 0.425756 -4.06223 0.321194 0.0182166 -0.761535
43 1 2.88805 2.97977 2.79352 0.658989 -0.128047 -0.234422 0.502361 -3.98985 -0.116019 -0.346011 0.572189
4 1 4.28587 1.49238 1.4567 0.589793 1.10743 2.15556 0.0826332 -4.0928 0.439012 0.048844 0.707755
6 1 7.07407 1.48241 1.43645 -2.75298 3.28339 -0.583491 0.204099 -4.06766 0.570653 -0.204984 0.105619
37 1 5.78093 0.0149946 2.81708 1.89715 -5.18293 -1.35095 0.350767 -4.02659 0.21162 0.624383 -0.0768703
45 1 5.86096 2.93635 2.80302 1.69963 -1.68072 -0.113507 0.491108 -3.91805 -1.43807 -0.825749 1.11693
9 1 11.3882 2.92959 0.113405 -4.30666 2.80691 -1.62868 0.108479 -4.11044 0.160433 0.0756549 -0.307698
8 1 9.98053 1.39425 1.3736 0.181171 1.25338 1.06267 0.320355 -4.05086 0.103468 0.428861 0.170699
15 1 8.62798 2.8486 0.0215768 -0.20273 0.86822 -2.7525 0.106091 -4.10028 -0.130877 0.133728 0.499276
47 1 8.63723 2.83444 2.82594 -3.3843 3.76828 1.71781 0.261383 -4.13744 -0.308438 -0.347315 -0.0107092
10 1 1.45841 4.38104 1.46367 -4.66141 -1.563 -0.804625 0.247216 -4.03866 -0.853556 -0.941261 0.971911
17 1 0.0396184 5.68642 0.00194883 -0.182703 0.982008 2.09798 0.25032 -4.14726 0.603993 0.749198 0.00774513
18 1 1.47097 7.25578 1.41408 -1.13047 -0.20212 -0.549778 0.334445 -4.03473 -0.713471 -0.748644 0.643068
49 1 0.156919 5.78649 2.92352 -1.02174 0.398507 -0.542151 0.233156 -4.04261 0.152108 -0.794887 0.30734
51 1 2.88352 5.86081 2.82611 1.75521 1.49653 0.144338 4.85897 -4.11674 0.00892975 -0.834041 0.815569
12 1 4.32242 4.33704 1.51774 2.00148 -0.619585 2.40335 0.0936015 -4.07403 0.163753 -0.330578 -0.140124
14 1 7.17201 4.25838 1.5294 2.2746 1.51774 1.81396 0.179029 -4.122 0.891274 1.46867 -1.04588
20 1 4.30345 7.17087 1.54042 0.388717 4.12411 0.860893 0.114004 -4.04575 0.145346 0.100289 0.0786611
21 1 5.69583 5.794 0.0923384 -1.28147 -0.530701 -1.11481 0.1561 -4.107 0.0135558 -0.229507 0.258117
22 1 7.19409 7.05552 1.53829 -1.35604 0.713208 -4.80694 0.197441 -4.10087 0.0952749 0.20459 0.105372
53 1 5.62727 5.69404 2.8798 0.523002 -0.387217 -0.0104432 0.311074 -4.10178 0.681841 0.138013 0.306418
16 1 10.038 4.32811 1.49693 0.437533 -0.177886 1.25122 0.14395 -4.12213 -0.471039 -0.0287896 0.183147
23 1 8.60923 5.75238 0.0290173 2.50402 1.72439 -3.19244 0.178803 -4.05631 0.0745849 -0.352754 0.234518
24 1 10.0101 7.00122 1.57173 -1.45861 2.54929 1.75735 0.528249 -4.06113 -0.687479 0.775775 -0.46298
55 1 8.59455 5.64802 3.05663 -4.0767 -0.417907 1.02349 0.393663 -4.01338 0.206991 0.685169 -0.972727
1 1 0.167916 11.3038 0.125405 3.79607 -3.88246 1.06074 0.321172 -4.13894 -0.676649 0.0200338 -0.475037
3 1 2.89371 11.4703 0.096064 2.27802 -2.84878 2.24759 0.174569 -4.13201 0.105084 -0.675086 -0.181192
35 1 2.81591 11.3327 2.88952 0.377095 -3.8805 0.449302 0.294395 -4.07254 1.15437 1.00604 0.608916
26 1 1.49918 10.0367 1.57951 4.56256 1.0033 -0.507538 0.188824 -4.03154 -0.305466 -1.20642 -1.25611
27 1 2.9478 8.50438 0.191361 0.0941575 2.42285 2.58586 0.370117 -4.01715 -0.139425 1.26303 -1.05687
59 1 2.83485 8.67874 3.00011 -3.37509 2.27967 -2.29158 0.414817 -4.16516 0.618565 -1.14155 -0.364506
28 1 4.28185 9.96495 1.50787 -0.287743 -1.33762 0.376097 0.127342 -4.11233 0.0530702 -0.0932767 -0.221691
29 1 5.62237 8.41498 0.0619517 3.07908 0.436344 -1.10022 0.320369 -4.04162 0.953986 0.570395 -0.0959143
30 1 7.11199 9.73962 1.44654 -2.25198 0.317936 -2.95367 0.634662 -4.03363 0.351612 0.854759 -0.229271
61 1 5.74876 8.59879 2.94936 1.2699 -0.362373 -3.949 0.209886 -4.13111 -0.17594 -0.305051 -0.0250639
33 1 11.3772 11.3564 2.92843 -3.2562 -0.734654 -2.09644 0.105472 -4.20438 -0.488121 0.644416 -0.189451
39 1 8.56565 11.3427 2.77499 4.4694 3.65661 -0.299485 0.394132 -4.11259 -0.746165 0.625342 0.657228
57 1 11.3072 8.64914 2.87586 0.480897 2.58582 2.6312 0.263911 -4.23007 0.140262 -0.638412 0.0550738
32 1 9.84614 9.9626 1.47549 -0.978545 -0.996844 1.5997 0.366576 -3.97957 1.15864 -0.0786354 -0.130387
63 1 8.628 8.54576 2.95851 -3.15306 -1.62495 -0.708868 0.23874 -4.15532 -0.250251 0.0224857 -0.112602
34 1 1.64391 1.48442 4.44804 0.362218 -0.781396 -0.184866 0.760351 -4.12872 -0.594063 0.0181088 -1.13298
66 1 1.47292 1.39975 7.15085 -0.421612 -0.144812 0.153956 0.280687 -4.08049 0.480885 0.298063 0.281573
75 1 2.88633 2.85172 5.89907 2.48171 2.08996 1.06695 0.547074 -4.05346 0.509302 0.538253 -0.65958
36 1 4.32431 1.54216 4.33038 0.037191 -3.43186 -1.72049 0.18322 -4.11802 0.364056 0.174031 -0.474992
38 1 7.1274 1.53147 4.37582 5.09535 -1.16139 2.48256 0.168036 -4.13372 -0.298263 -0.165003 -0.130429
68 1 4.25896 1.46479 7.14051 -2.6933 1.27588 -1.8222 0.242198 -4.05683 0.0603896 0.242998 0.364382
70 1 7.14672 1.46204 7.16463 -3.92152 0.349882 0.37308 0.213587 -4.12582 0.0705684 0.306496 -0.238237
77 1 5.73498 2.998 5.95767 -0.125728 -3.17892 -0.447174 0.750601 -4.00983 0.0271454 -0.117207 -0.643494
73 1 11.436 2.80915 5.6972 2.35575 -1.58985 0.820237 0.16885 -4.13786 -0.660036 0.0654692 0.121723
40 1 9.89063 1.4322 4.33813 -0.0465666 -0.070614 2.62798 0.237016 -4.12094 0.216598 0.471931 -0.169648
72 1 9.92491 1.45977 7.14859 2.24109 -3.22333 1.23885 0.176016 -4.16632 0.785269 0.520201 0.654772
79 1 8.597 2.96302 5.71291 -2.223 0.389874 -2.4589 0.207864 -4.07895 -0.47828 -0.106166 0.567705
42 1 1.51553 4.18996 4.28575 -4.92665 -0.881334 1.07754 0.383234 -4.05611 -0.0518687 0.930375 0.379967
50 1 1.46277 7.15194 4.35042 0.462694 1.41608 2.33045 0.248228 -4.08489 -0.153611 0.0785691 -0.173685
74 1 1.45053 4.29435 7.00066 -4.825 0.772001 -2.238 0.609955 -4.05451 0.53297 0.896406 0.611476
82 1 1.58813 7.19055 7.04541 -1.1257 -0.237761 1.58584 0.309325 -4.10015 -0.786189 -0.278447 0.75936
83 1 3.02241 5.70618 5.58353 -1.296 -0.379127 1.69888 0.593593 -4.03504 -1.07569 0.188463 0.680686
44 1 4.38947 4.27337 4.39673 2.13161 2.4372 -1.0514 0.552271 -4.06143 -0.255773 -0.629292 -0.919456
46 1 7.18622 4.26235 4.22374 -0.236087 0.855935 2.14225 0.461904 -4.10209 -0.753428 -0.0604098 1.09749
52 1 4.36238 7.14621 4.30546 0.502765 0.30515 -2.40995 0.218358 -4.05005 -0.209866 0.171695 -0.183688
54 1 7.08331 7.11381 4.25501 3.79484 -2.19251 -3.75252 0.221108 -4.07025 0.210476 0.0187598 0.328414
76 1 4.26276 4.48735 7.25632 -0.877408 -0.291397 -0.143679 0.59957 -4.03994 0.759206 -1.02139 -1.29247
78 1 7.12633 4.41565 7.28914 -0.53233 1.04924 0.692875 0.294117 -3.98066 0.188168 -0.249478 -0.624796
84 1 4.32267 7.19328 7.09698 -0.895055 2.11056 1.26187 0.122745 -4.18119 -0.0325678 -0.361345 0.232026
85 1 5.71132 5.77356 5.68714 0.323964 -0.292741 -0.0899156 0.172527 -4.09497 0.600954 -0.34509 0.353369
86 1 7.18676 7.1339 7.15077 0.279844 2.15837 0.277243 0.0827147 -4.07187 -0.583148 0.217627 0.0544695
81 1 11.3169 5.77254 5.803 4.87602 -0.13268 -1.18468 0.3183 -4.0351 0.162553 -0.50821 -0.579565
48 1 9.98219 4.2429 4.29883 1.10745 2.88457 0.06871 0.172164 -4.09969 0.453225 0.575775 0.297802
56 1 10.015 7.12057 4.35622 -0.556969 -4.27798 0.569125 0.144216 -4.05248 -0.723573 -0.407849 -0.643666
80 1 10.0242 4.25524 7.10252 0.404142 -1.30608 -0.256619 0.214193 -4.06403 -0.303329 0.219111 0.19768
87 1 8.54958 5.75906 5.78968 2.46486 0.949602 -0.227762 0.154361 -4.13582 0.220257 -0.264475 -0.482872
88 1 9.90363 7.25634 7.16956 -0.917656 0.0652188 -3.83387 0.287242 -4.08912 0.671329 -0.36181 -0.20427
65 1 0.0267458 11.427 5.74773 -1.86357 0.0729517 -3.90496 0.296308 -4.07874 0.452118 -0.162894 -0.0709772
67 1 2.93073 11.3033 5.71997 2.4224 1.10996 -0.94645 0.184233 -4.10726 -0.104659 -0.260628 0.273013
58 1 1.36595 9.96633 4.28396 -1.30769 -1.811 0.805588 0.22404 -4.07961 0.800149 0.229787 0.982551
89 1 -0.0213296 8.59893 5.59627 1.86163 -1.11813 -2.69491 0.603896 -4.03503 0.657136 -0.0631254 1.20517
90 1 1.47001 9.8635 7.03642 -1.11623 0.537875 -2.07244 0.431684 -4.15223 -0.0379626 0.440727 0.609731
91 1 2.91405 8.50923 5.67723 0.468638 -2.49793 3.99552 0.207693 -4.06296 0.793115 0.955217 -0.734876
69 1 5.59484 11.3804 5.82573 4.14739 0.238489 1.2773 0.452158 -4.04034 0.963154 -0.109801 -0.497835
60 1 4.39397 10.1028 4.22141 2.00291 2.46098 1.39105 0.716927 -4.03163 -0.751954 -0.654167 0.73747
62 1 7.26684 10.1043 4.37086 -3.5963 3.46178 -1.10665 0.695753 -4.04973 -0.892622 -0.322856 -0.563347
92 1 4.2468 9.96498 7.19546 2.82513 2.20361 1.38757 0.184534 -4.12429 1.05595 0.0953348 -0.408639
93 1 5.72841 8.69817 5.64921 -3.05712 -0.195756 2.32014 0.360831 -4.10423 0.0754187 -0.719397 0.195694
94 1 7.07904 9.96008 7.17772 -1.27351 0.521769 3.12561 0.149351 -4.14248 0.518274 0.242984 -0.0282996
71 1 8.58547 11.4348 5.78191 0.326164 1.32876 0.905527 0.100346 -3.98991 -0.502007 -0.717995 0.19358
64 1 9.97505 10.0897 4.33208 -0.116971 -0.640664 -1.01305 0.301767 -4.09683 -0.593599 -0.416658 0.0167531
95 1 8.51889 8.54749 5.6459 -0.854168 -2.5537 4.61327 0.33739 -4.08446 0.112793 0.13957 0.451394
96 1 10.0175 9.98512 7.26691 1.02699 -0.473268 -3.63006 4.31236 -4.17271 -0.673637 -0.0779081 -1.06058
98 1 1.51123 1.55382 10.0445 -2.95489 0.183037 -2.67278 0.154505 -4.0495 -0.184111 -0.205715 -0.298938
107 1 2.91801 2.9765 8.61779 0.530899 -1.80711 1.1038 0.170584 -4.18243 -0.00553767 -0.454826 -0.39346
13 1 5.75776 2.91995 11.4181 1.53697 -4.88759 -1.0979 0.0283893 -4.14585 -0.343514 0.0113944 -0.283355
100 1 4.36209 1.52752 9.97565 -3.88829 0.60169 4.0169 0.121228 -4.03717 -0.460061 0.00945007 0.542901
102 1 7.10497 1.49465 9.95242 0.478947 0.0865405 -4.22584 0.0675375 -4.11628 0.116354 0.10175 0.150057
109 1 5.66469 2.94853 8.56592 0.635438 5.59238 3.1797 0.139871 -4.18607 0.316802 -0.00755965 0.0495957
7 1 8.45866 0.0732426 11.364 -0.69613 -2.04271 -1.5141 0.227149 -4.10904 0.262428 -0.207423 -0.379222
105 1 11.4869 2.98228 8.46758 -0.835497 0.520169 -1.55828 0.36956 -4.08488 -0.590071 -0.565091 0.433025
103 1 8.52151 0.119204 8.55806 3.30084 1.19964 1.42878 0.0843051 -4.02682 -0.037981 -0.128472 0.137964
104 1 10.0627 1.47688 9.91595 1.03858 2.27114 2.64703 0.181901 -4.1322 -0.114328 -0.102062 0.119842
111 1 8.55706 2.87001 8.58596 2.7877 -2.55399 2.08928 0.0681728 -4.09272 -0.244436 0.294999 -0.2211
19 1 2.83817 5.61566 11.4608 -2.43847 -2.78094 -0.498922 0.711961 -4.13571 1.30237 1.52482 -0.953293
106 1 1.53556 4.37986 9.93036 4.05422 2.15433 1.14625 0.108802 -4.0569 -0.64656 -0.415945 0.364392
113 1 0.0700561 5.78905 8.52433 -0.0609526 1.58247 0.914224 0.146804 -4.13026 0.500765 -0.269481 -0.266102
114 1 1.54344 7.19685 9.95971 -1.02817 0.581896 -0.263945 0.22012 -4.0757 -0.131769 -0.275622 0.319632
115 1 2.89191 5.6976 8.57812 0.389067 1.05299 -2.83662 0.306782 -4.00654 -0.745413 0.951642 -0.0438803
108 1 4.38442 4.39508 10.0241 1.51163 4.10421 1.12069 0.240042 -4.06229 -0.668245 -0.705173 0.357878
110 1 7.20381 4.3294 10.0704 -1.66055 1.22098 0.51544 0.197289 -4.09051 -0.423623 -0.0659084 -0.60072
116 1 4.20432 7.17134 9.90189 -2.55291 -0.882907 -0.586751 0.473899 -4.16368 -0.018702 -0.237742 0.408624
117 1 5.67104 5.74775 8.67895 -0.742601 0.729565 -2.57165 0.228753 -4.08232 0.871076 0.353612 -0.790957
118 1 7.16893 7.10677 9.97318 -0.89639 -1.33642 -0.997632 0.0465275 -4.1133 -0.0241041 0.0663614 -0.0869876
112 1 10.0151 4.30795 9.88008 1.21521 1.37106 1.67111 0.117736 -4.10693 0.0286644 -0.437895 0.544223
119 1 8.67963 5.69398 8.55766 -0.185016 -0.635777 3.13087 0.265241 -4.17342 -0.671 0.380438 -0.114093
120 1 9.9975 7.11668 9.90542 -0.180236 -1.50073 -0.587765 0.112255 -4.06031 -0.168949 0.111859 0.574624
25 1 0.012135 8.60044 11.3718 1.54011 -2.97284 -1.24568 0.265723 -4.13964 0.160908 -0.10949 0.0663042
97 1 0.20045 11.311 8.59659 -1.22054 -0.953522 -1.75125 0.307403 -4.01987 -0.0251611 0.417744 -0.307929
99 1 2.94797 11.2956 8.62991 -0.0410983 0.887587 -0.274915 0.21258 -4.09432 -0.585736 1.02815 -0.433352
121 1 0.0790742 8.59 8.6971 -4.26082 -2.40797 -1.05358 0.611016 -4.05596 0.686843 -0.508228 -1.02215
122 1 1.57798 9.94409 9.98302 -1.3066 0.420933 3.69013 0.146862 -4.11076 -0.228899 -0.219681 0.240086
123 1 2.92427 8.63993 8.50871 -0.847924 -4.44416 -1.77412 0.199444 -3.99805 -0.575431 -0.829729 0.402586
5 1 5.69192 11.2507 11.3788 1.3083 -1.98695 -0.541529 0.19909 -4.10293 0.181224 0.5799 0.0570652
101 1 5.66289 11.5266 8.57002 0.920369 0.419792 -0.724485 0.503637 -4.11046 0.324793 -1.23317 -0.47809
124 1 4.32121 9.90335 9.93618 -0.750372 -2.11185 3.10395 0.139961 -4.14321 0.216126 0.130408 0.449247
125 1 5.7505 8.45394 8.53419 -1.00046 1.17969 2.57195 0.257154 -4.01593 -0.42508 0.434531 0.0066246
126 1 7.04338 9.96614 9.84144 -0.580374 1.77946 -0.256286 0.423456 -4.05295 0.361242 -0.314644 0.779168
31 1 8.68848 8.51382 11.3403 -0.233389 2.3506 1.45062 4.99672 -4.07807 -0.908115 -0.0269828 -0.143742
127 1 8.54837 8.5025 8.60134 -2.47426 -0.00375904 -1.39676 0.217302 -4.08659 -0.0480817 0.350116 0.0485739
128 1 9.97009 10.0473 9.85358 -1.04229 -2.16457 0.328766 0.599539 -4.08708 -0.608526 0.0347978 0.951982
