ITEM: TIMESTEP
7500
ITEM: NUMBER OF ATOMS
128
ITEM: BOX BOUNDS pp pp pp
9.3147266964108688e-02 1.1370852733035589e+01
8.2880508209829173e-02 1.1381119491789960e+01
8.2649763769289494e-02 1.1381350236230592e+01
ITEM: ATOMS id type x y z vx vy vz c_csym c_peratom fx fy fz
2 1 1.62058 1.57405 1.50237 0.303201 -1.23385 -2.38558 0.283765 -4.06251 -0.850107 -0.0425205 -0.181345
11 1 2.99902 2.91515 0.106283 1.85844 2.97318 -4.71579 0.25755 -4.07716 -0.243587 0.401081 -0.888712
41 1 0.13877 2.84155 2.9787 -1.3194 -1.87632 -4.86961 0.146318 -4.1156 -0.555856 0.648733 -0.816305
43 1 2.96275 2.85013 3.01234 -1.04518 0.340809 -1.58075 0.388804 -4.14349 -0.239833 0.494938 -0.556218
4 1 4.30219 1.52625 1.51015 -0.0152313 -1.77853 -1.97827 0.0891789 -4.07794 0.724358 -0.00238323 0.450361
6 1 7.08191 1.56381 1.45471 -1.87066 0.815078 -0.777284 0.237735 -4.07532 0.174206 -0.476914 0.174389
37 1 5.72337 0.0638612 2.9281 3.45122 -0.167314 -0.58145 0.0936718 -4.02216 -0.0625529 0.058056 0.373386
45 1 5.73946 2.92821 2.90017 -0.608124 0.483225 -1.14037 0.111623 -4.04045 -0.582757 -0.654466 0.0587136
9 1 11.3669 2.99379 0.102754 -3.30816 1.93405 -0.361925 0.18838 -4.12679 -0.131197 -0.384626 0.084432
8 1 10.0775 1.3939 1.54915 2.47104 0.247872 0.0112398 0.325342 -4.04396 -0.597077 0.682212 0.456625
15 1 8.57953 2.92642 0.24116 -2.18305 1.72784 1.45863 0.572777 -4.12733 -0.628465 -0.256276 -1.28068
47 1 8.55286 2.84008 2.8544 -1.55264 1.31784 -5.33627 0.168017 -4.12713 0.296821 0.688455 0.218113
10 1 1.65874 4.30325 1.53978 -0.0756836 2.92926 2.61365 0.413491 -4.0786 -0.73147 -0.00964879 -0.223467
17 1 0.167099 5.63184 -0.0420124 1.27076 -3.27652 1.4644 0.40299 -4.13263 -0.904737 0.0785974 1.41716
18 1 1.53597 7.1007 1.49845 -0.839266 -1.86271 0.386066 0.193274 -4.10725 0.237614 0.529129 -0.566911
49 1 0.117985 5.73164 2.70994 -1.50578 -0.200498 -2.92226 0.628437 -3.99241 -0.485413 -0.311134 1.23203
51 1 2.89806 5.75685 2.94905 -0.680383 2.98499 -0.785221 0.0884256 -4.05645 -0.000620232 0.135896 0.0850907
12 1 4.28958 4.43732 1.57327 2.65447 2.26174 -2.16551 0.338912 -4.16718 0.350055 -0.598098 -0.597478
14 1 6.95901 4.3219 1.50796 0.0665685 0.295957 1.41959 0.471369 -4.11 0.63198 0.307588 0.167214
20 1 4.27132 7.15388 1.41325 -1.20346 -2.942 -2.08288 0.150048 -4.20977 0.146021 0.114397 0.104993
21 1 5.78173 5.78471 0.079264 -1.82016 -2.31613 -0.16598 0.1562 -4.0359 -0.650704 -0.251914 -0.137068
22 1 7.00068 7.18769 1.50246 1.06991 -3.04972 2.65649 0.297346 -4.12917 0.747867 -0.340952 -0.161474
53 1 5.58733 5.8322 2.99243 4.43402 2.64825 -1.68796 0.349403 -4.08375 0.829178 0.306414 -0.383957
16 1 9.91898 4.25768 1.53509 -1.10649 -1.8033 -1.83228 0.198425 -3.90839 0.876305 0.775239 0.348047
23 1 8.49468 5.6157 0.0754897 -1.31392 0.934594 3.4418 0.283452 -4.13101 0.644933 0.799725 0.821699
24 1 9.97862 7.11876 1.43096 1.04304 -1.90648 1.82027 0.0934656 -4.04079 -0.0849941 -0.308129 0.104549
55 1 8.47205 5.72006 2.91443 1.47256 -0.120693 -0.299863 0.0336418 -4.07718 0.048412 -0.00354432 -0.320344
1 1 0.0431373 11.3961 0.116641 -1.74955 0.431046 -2.57652 0.123274 -4.06737 0.959152 -0.129936 -0.245899
3 1 2.95217 11.509 0.147744 0.423021 1.25439 4.45308 0.229118 -4.10385 0.0479262 -1.03391 -0.40153
35 1 2.8582 11.397 2.93007 -1.31431 0.392239 1.24949 0.149976 -4.17581 0.673288 -0.0975147 0.296654
26 1 1.55936 9.97005 1.53064 -0.566444 -0.599051 -0.503694 0.100018 -4.04826 -0.375857 0.0249885 -0.545904
27 1 2.95719 8.63856 0.0429977 -4.75086 2.4006 2.13302 0.235101 -4.07022 -0.57733 -0.579942 -0.230656
59 1 2.91442 8.54714 2.86627 -2.50136 1.34774 0.0648575 0.10418 -4.09071 -0.190154 0.295958 -0.125849
28 1 4.41279 9.90272 1.55859 -2.74401 0.990661 1.32003 0.39562 -4.0753 -0.601597 0.758987 -0.729628
29 1 5.7603 8.63643 -0.00775636 1.09929 -0.760685 -3.11034 0.329737 -4.07441 -0.225394 -0.385802 0.400804
30 1 7.07325 9.97723 1.4604 -1.20368 0.807412 1.43633 0.149524 -4.13192 0.658632 -0.24034 0.2821
61 1 5.6798 8.50252 2.95309 0.773256 -2.85433 0.77464 0.143716 -4.12097 0.100204 0.279524 0.00499536
33 1 11.5043 11.3449 2.93346 1.10253 1.1496 0.993232 0.297632 -4.18527 -0.670244 0.111222 0.0984408
39 1 8.57382 11.3099 2.92351 0.762487 -2.3896 3.36526 0.162771 -4.05374 -0.703794 0.561378 -0.405455
57 1 11.3762 8.49988 2.87274 -0.98906 0.422171 -0.0802063 0.0653624 -4.06771 -0.106662 0.358366 -0.154964
32 1 9.92759 9.92798 1.5551 -0.64814 -1.67026 1.85985 0.131249 -4.13172 0.135646 -0.093236 -0.325614
63 1 8.50626 8.46749 2.85517 -2.56447 0.809036 0.811395 0.148923 -4.04374 -0.0521119 0.0185325 -0.0505513
34 1 1.50793 1.54137 4.29865 -1.82948 0.883536 -2.62248 0.117841 -4.00034 0.331263 -0.541104 0.555292
66 1 1.48703 1.45659 7.2232 1.24352 0.0230024 4.53112 0.302869 -4.09693 0.115248 0.360012 -0.454834
75 1 2.89649 3.01546 5.69695 0.28766 -0.0886752 0.85066 0.219104 -4.06832 0.0155028 -0.61403 0.447984
36 1 4.34663 1.60152 4.43515 -4.43961 -2.28513 3.14889 0.46946 -4.03944 0.145485 -0.801781 -0.468997
38 1 7.2035 1.53753 4.22819 2.13803 0.750766 1.13321 0.228524 -4.09417 -0.638198 -0.402492 0.889882
68 1 4.42153 1.43739 7.09779 0.912531 -0.535043 -4.10732 0.29523 -4.10337 -1.01062 0.206207 0.0417423
70 1 7.20966 1.46259 7.10248 -0.460958 -2.63833 0.766967 0.0972989 -4.13306 -0.0230378 0.105721 0.0234273
77 1 5.80096 2.88117 5.81216 -0.657735 3.43505 1.02756 0.251932 -4.0455 -0.480991 0.379327 -0.503451
73 1 11.3807 2.85551 5.66051 2.12796 0.266517 0.0604019 0.247772 -4.13189 0.0448472 -0.031911 0.241156
40 1 9.88868 1.38791 4.35279 2.01207 -3.02309 1.7077 0.405309 -4.06001 1.01563 0.959061 -1.0503
72 1 9.93005 1.64543 7.07519 0.515416 -0.177343 1.30804 0.465416 -4.11782 -0.263251 -0.871427 0.195128
79 1 8.59424 2.98263 5.61453 -1.66532 -3.94782 3.55613 0.316254 -4.09394 -0.359746 -0.314673 0.138478
42 1 1.47524 4.39991 4.3441 2.97793 -1.28479 2.63571 0.286772 -4.13102 0.39676 -0.279972 -0.718962
50 1 1.4755 7.19254 4.28418 -2.85584 -2.85555 -1.04401 0.136433 -4.20355 0.0351574 -0.481961 0.277859
74 1 1.42146 4.24969 7.12636 1.23338 -2.63949 0.827883 0.255223 -4.10556 0.235731 0.674098 0.506861
82 1 1.49435 7.23955 7.15571 -0.60984 1.51602 -0.769662 0.255289 -4.04958 0.147291 -0.884749 0.40106
83 1 2.9604 5.73351 5.74641 0.251106 2.58144 -5.86691 0.176978 -4.08194 -0.472719 0.0802058 0.121284
44 1 4.3613 4.31699 4.24066 -0.93877 1.96809 2.30524 0.313329 -4.13168 -0.343083 -0.280447 1.00286
46 1 7.00755 4.29948 4.29648 -1.96829 3.48979 -0.529927 0.282076 -4.10179 0.936228 0.143041 -0.0820518
52 1 4.18028 7.23757 4.32452 -1.56205 -2.13405 1.4952 0.362109 -4.13368 0.651098 -0.584785 0.210983
54 1 7.09558 7.1351 4.30664 0.195923 -2.27046 -1.16933 0.0633546 -4.09527 0.442808 0.00345044 0.448519
76 1 4.28516 4.35551 7.21929 2.86983 3.4545 -4.86455 0.16183 -4.06589 0.311518 -0.2951 -0.626637
78 1 7.20137 4.28697 7.09887 2.50502 -0.827082 2.23208 0.149073 -4.10412 -0.328221 0.261607 0.166571
84 1 4.31456 7.08461 7.18943 -0.981637 -1.75322 1.47361 0.0971626 -4.03505 0.087453 0.543571 -0.157776
85 1 5.69712 5.77807 5.7054 1.67929 -3.19431 -3.06725 0.0969193 -4.14416 0.00994989 -0.281786 0.225786
86 1 7.18038 7.12568 7.11712 -0.267055 2.61014 -1.97368 0.0826936 -4.06924 -0.0764651 -0.00307618 0.404859
81 1 11.4477 5.73674 5.74162 3.04311 2.92211 -1.8916 0.16441 -3.99365 -0.667492 0.119905 -0.0933167
48 1 10.0114 4.31845 4.2799 2.11568 1.74685 1.14335 0.134107 -4.08275 0.0122658 0.249531 -0.0163966
56 1 9.98145 7.16331 4.29743 1.80602 1.48979 6.31886 0.107977 -4.15257 0.129291 -0.480011 0.00668525
80 1 9.94351 4.29149 7.10198 2.70824 -1.84588 -2.49386 0.0971736 -4.20507 0.378081 0.323652 0.0862359
87 1 8.53322 5.68069 5.70315 0.727379 0.474308 1.21527 0.0657591 -4.07655 -0.0667282 0.275462 -0.229144
88 1 9.94773 7.04056 7.17114 -0.26723 0.381534 4.60365 0.180037 -4.11497 0.118281 0.261541 0.162551
65 1 0.0786568 11.3149 5.63886 2.58522 1.63153 1.8304 0.237624 -4.12018 0.12748 0.239989 0.755492
67 1 2.80386 11.3784 5.67998 -1.12129 -0.0564008 -3.07582 0.538566 -4.08651 0.499677 0.283 0.143819
58 1 1.50711 9.80628 4.34291 -1.92997 -0.472035 -5.19229 0.413439 -4.12811 -0.193111 0.300079 -0.00638994
89 1 0.0629441 8.49475 5.81689 0.388999 -1.60409 -1.24299 0.221701 -4.02423 -0.117354 0.806874 -0.217819
90 1 1.57316 9.97393 7.27074 1.22365 0.0611212 1.00181 0.341031 -4.09139 -0.429506 -0.0400404 -0.363591
91 1 2.91245 8.5977 5.80169 -2.20211 -0.517746 1.42826 0.183092 -4.08385 -0.100355 -0.550444 0.200743
69 1 5.74326 11.3001 5.62701 -3.91863 -0.198401 -1.9969 0.366257 -4.06389 0.467717 0.251998 0.338241
60 1 4.22547 9.90087 4.36987 0.530446 0.564739 1.34346 0.22745 -4.10046 0.439296 0.582633 -0.557891
62 1 7.15634 9.79201 4.37117 -3.42687 -1.54185 -0.138504 0.372988 -4.10182 0.501084 0.964346 -0.549136
92 1 4.31837 10.0845 7.09088 2.01595 1.04699 0.838578 0.337313 -4.13855 -0.335444 -0.663033 0.267292
93 1 5.7064 8.54279 5.70035 -0.418666 1.71565 0.65864 0.109441 -4.1535 -0.300937 -0.259988 0.730649
94 1 7.23018 9.93117 7.10713 -1.28973 -0.926941 -3.02281 0.0829005 -4.06359 -0.504009 0.223158 0.0303562
71 1 8.60515 11.4052 5.72148 1.77334 -3.30549 -0.0541624 0.117323 -4.06086 -0.831661 -1.03027 0.420552
64 1 9.90384 9.90782 4.24996 5.33667 -2.37012 -0.0853913 0.277418 -4.14371 0.319398 -0.393417 0.311422
95 1 8.59101 8.48571 5.83826 3.44214 -0.489372 -4.12863 0.320176 -4.06216 -0.036324 0.0368612 -0.971368
96 1 9.95117 9.91255 7.13852 0.0807657 0.92706 -2.68301 0.116004 -4.03699 0.296845 0.139053 -0.031528
98 1 1.4088 1.57064 9.9704 1.89363 -2.11288 1.78062 0.15092 -4.10357 0.397969 -0.575405 0.0570113
107 1 2.91967 2.92576 8.55627 1.26853 -4.37827 -2.21319 0.114948 -4.04836 0.433064 -0.290184 -0.144736
13 1 5.64028 2.93284 11.2629 -2.13767 -2.79289 -2.68368 0.324339 -4.08298 0.254692 -0.0110047 0.482606
100 1 4.3447 1.48678 9.90638 0.844503 1.57441 -1.73288 0.0861019 -4.06471 -0.0842383 0.0733132 -0.072011
102 1 7.17884 1.53948 9.91227 1.44274 0.53657 -0.908234 0.0983124 -4.08095 -0.0500666 -0.225487 0.241006
109 1 5.72864 2.90419 8.50361 3.00123 -2.41179 -3.66553 0.079256 -4.12841 0.0118346 0.1018 0.255992
7 1 8.5943 0.15357 11.4132 -0.146607 0.339498 -0.591962 0.22138 -4.10495 -0.399076 -0.251862 0.255897
105 1 11.2617 2.87123 8.56927 -0.320826 2.03783 -1.52691 0.205433 -4.05964 0.414703 0.368237 0.0647304
103 1 8.62509 0.0156365 8.5733 -6.2234 -0.19245 3.99808 0.236659 -4.11342 -0.194595 0.429303 -0.219234
104 1 9.83144 1.57668 9.99297 3.23337 1.82168 -6.1899 0.271283 -4.09552 0.99802 -0.36583 0.183005
111 1 8.54852 2.96914 8.61852 -3.64829 -1.59275 1.27295 0.187225 -4.06763 -0.4789 -0.178622 -0.747785
19 1 2.89625 5.74824 11.2292 -1.54048 -1.76491 -1.40272 0.417304 -4.08661 0.381865 -0.489197 1.05958
106 1 1.51087 4.30933 9.83809 2.39196 -0.607786 0.950526 0.350089 -4.07758 0.0249735 -0.581967 0.59471
113 1 0.0535169 5.75225 8.62175 -2.00044 1.81968 -0.914189 0.223817 -4.10397 0.211157 -0.151554 -0.629338
114 1 1.4632 7.04005 9.98507 -0.997679 -2.19223 -1.08471 0.316236 -3.9701 0.329509 1.83832 -0.407505
115 1 2.91961 5.77446 8.64844 -1.99597 4.24433 -1.24147 5.03188 -4.12159 -0.622135 0.360762 -1.61983
108 1 4.3599 4.4678 9.85606 -3.77713 -0.562269 2.99485 0.475345 -4.04593 -0.211081 -1.52103 1.52946
110 1 7.09593 4.37132 10.0264 1.2458 -1.20895 5.39037 0.216168 -4.0973 -0.00596538 -0.98137 -0.473602
116 1 4.43105 7.1597 9.94184 2.53825 1.39092 0.287757 0.167356 -4.13155 -0.17482 -0.124342 0.31244
117 1 5.76607 5.68982 8.54507 1.04021 -1.00491 3.17304 0.143906 -4.12895 0.619106 0.74988 -0.60337
118 1 7.21106 7.12894 10.0078 -1.56811 -1.76879 5.35236 0.15906 -4.13948 -0.721248 -0.0761813 -0.6344
112 1 9.93337 4.34407 9.92089 1.98587 -2.28405 -1.94454 0.211509 -4.1208 0.0844609 -0.230438 0.258812
119 1 8.50929 5.65631 8.57415 -0.251751 0.612237 2.65788 0.107449 -4.10603 0.0590856 0.411431 -0.185533
120 1 9.88216 7.10889 9.97269 -0.0148716 4.38576 -2.35099 0.174059 -4.09741 0.364437 -0.262325 0.188426
25 1 0.0711593 8.58112 11.3509 3.44449 1.22337 2.65279 0.130645 -4.11283 0.548591 -0.33561 0.424309
97 1 -0.0425169 11.4216 8.49224 -0.671421 1.69832 0.878114 0.466745 -4.09258 0.251988 -0.0815629 0.530977
99 1 2.94985 11.3929 8.63028 1.32459 -0.950142 1.32834 0.16594 -4.02864 0.0333823 0.220773 -0.360495
121 1 0.0939836 8.57883 8.75686 4.14829 3.68435 1.1469 5.0254 -4.11767 -0.183424 -0.0458737 -1.20719
122 1 1.5291 10.107 9.9554 -2.09277 -2.35785 1.27153 0.329107 -4.03466 -0.215559 -0.311422 0.143601
123 1 2.99497 8.50958 8.62946 -3.91321 0.891964 -0.351185 0.256031 -4.13799 -0.344753 0.3248 -0.100822
5 1 5.79462 11.4492 11.3214 1.24764 -0.278342 3.93706 0.197558 -4.09397 -0.677135 -0.0783545 0.293753
101 1 5.77324 11.3607 8.4824 1.10178 3.36485 -2.1851 0.125311 -4.09206 0.33558 -0.0629013 0.687992
124 1 4.32159 9.99435 9.99345 -0.125764 1.70404 1.67822 0.0794602 -4.06043 0.275217 0.458008 -0.249611
125 1 5.72058 8.5774 8.51342 -0.20913 0.593992 -0.221191 0.158988 -4.08278 0.473193 0.262373 0.268872
126 1 7.26532 9.99137 10.0659 -0.864461 -4.04421 -0.152141 0.389006 -4.07361 -0.52952 -0.0107558 -0.695908
31 1 8.54396 8.43596 11.3926 -0.824598 0.638662 1.39007 0.32792 -4.0777 0.180295 1.09554 0.42054
127 1 8.62493 8.5775 8.60062 0.749696 2.42273 -0.533994 0.100986 -4.15132 -0.232503 -0.0874969 -0.201196
128 1 9.95803 10.0142 10.0947 -0.270578 5.4708 0.538183 0.268857 -4.09527 -0.220317 -0.279785 -0.205135
