ITEM: TIMESTEP
16750
ITEM: NUMBER OF ATOMS
128
ITEM: BOX BOUNDS pp pp pp
8.3836698855720648e-02 1.1380163301144016e+01
8.8748301583875033e-02 1.1375251698415980e+01
8.2649241204431845e-02 1.1381350758795451e+01
ITEM: ATOMS id type x y z vx vy vz c_csym c_peratom fx fy fz
2 1 1.5151 1.66664 1.4307 -1.70081 -0.910381 -2.16156 0.445496 -4.08411 -0.198587 -0.974264 0.495331
11 1 2.97039 2.89799 0.0723728 0.239744 1.59627 1.40644 0.137747 -4.08681 -0.447978 0.720099 0.160851
41 1 0.0478301 2.89492 2.86796 1.2273 -0.176296 -0.316096 0.251112 -4.09199 0.686659 0.844072 -0.230091
43 1 2.84593 3.02941 2.86824 -0.486716 0.859422 -0.972612 0.145257 -4.04227 0.293026 -0.606101 0.0465309
4 1 4.27098 1.48707 1.42628 0.612245 -0.534697 -2.1068 0.164767 -4.17683 0.593161 0.298093 0.90161
6 1 7.1505 1.43998 1.46689 -0.140972 3.48051 2.06692 0.128293 -4.04369 0.276545 0.337251 0.17861
37 1 5.67009 0.142139 2.98541 -0.103497 0.380741 -0.223261 0.222631 -4.04342 0.744315 -0.113017 -0.695043
45 1 5.77451 2.88767 2.93877 -2.27686 -3.55629 0.875857 0.146192 -4.07132 -0.138368 0.423017 -0.579188
9 1 11.385 2.85622 0.0119921 -0.323175 -0.316913 -1.23618 0.273295 -4.12174 -0.00730197 0.374158 0.293072
8 1 9.93674 1.50654 1.47472 -0.0463569 2.38928 2.47602 0.10049 -4.09429 -0.187578 -0.047548 -0.0311164
15 1 8.62988 2.97481 0.0582765 -1.8157 -1.11287 -2.78499 0.140432 -4.10395 -0.706381 -0.368266 0.572334
47 1 8.57382 2.96417 2.93506 -5.20901 2.92261 -0.480425 0.12989 -4.13024 -0.406821 -0.257151 0.140931
10 1 1.48671 4.44565 1.3786 -0.338851 -0.252321 3.85394 0.431815 -4.1136 -0.0695928 -0.890103 0.854803
17 1 0.0353764 5.72863 0.0524648 0.272684 -3.09972 0.716764 0.11931 -4.10165 0.0977246 0.169606 -0.158979
18 1 1.56483 7.21343 1.38864 -0.789521 -0.464373 3.39051 0.359037 -4.0449 -0.418785 -0.69037 0.608111
49 1 0.167222 5.79071 2.8503 1.2621 -1.80936 2.39423 0.265492 -4.02793 -0.670002 -0.467419 -0.354033
51 1 2.95827 5.71805 2.93163 -0.159003 -2.1863 -0.151012 0.216329 -4.09363 -0.220333 0.257258 -0.241652
12 1 4.26905 4.32263 1.46518 -0.0036115 -0.910961 1.27714 0.236636 -4.06745 0.936755 -0.0494955 0.398607
14 1 7.2091 4.41561 1.44225 -0.00988767 -2.04156 -4.71015 0.21408 -4.00139 -0.112902 -0.727668 0.413002
20 1 4.34688 7.22095 1.46757 1.40141 -0.914734 0.528651 0.243034 -4.0914 -0.706681 -0.693674 0.918524
21 1 5.76992 5.79716 0.195885 -1.13328 1.11458 -1.92488 0.338967 -4.08798 -0.200798 -0.274416 -0.45856
22 1 7.2099 7.25131 1.483 -3.21054 -1.05924 1.10869 0.269799 -4.1507 -0.100695 -0.235356 0.370968
53 1 5.85839 5.81111 2.90155 4.4724 -0.676923 1.88772 0.279428 -4.08961 -0.878751 -0.709773 -0.266511
16 1 10.079 4.3062 1.47992 2.96986 -0.766428 0.291636 0.214288 -4.10276 -0.616309 0.194992 -0.342963
23 1 8.51645 5.8208 0.0672782 -2.29102 -3.72284 -0.205274 0.109955 -4.1053 0.395671 -0.268606 0.274021
24 1 9.97763 7.16066 1.49047 0.0339123 1.01567 -2.39153 0.135642 -4.09855 0.265931 -0.0114769 0.11169
55 1 8.71736 5.65844 2.92392 2.04733 3.00519 1.92226 0.509399 -4.05684 -1.02654 0.499007 -0.167706
1 1 0.0416733 11.3744 0.101562 0.327915 2.87746 -1.23116 0.159376 -4.1106 0.33865 0.340269 0.0960197
3 1 2.86033 11.4134 0.142059 0.315615 1.78863 3.82396 0.177559 -4.06348 -0.0284535 -0.44313 -0.300247
35 1 2.88177 11.3788 2.8288 0.308605 -3.11414 -2.027 0.143844 -4.11488 -0.713419 0.538374 0.322054
26 1 1.41578 9.96352 1.44876 -0.449574 1.49568 -1.82785 0.201996 -4.04231 0.81262 0.0373231 -0.636376
27 1 2.9482 8.51005 0.031753 0.369493 -2.1552 0.233803 0.199466 -4.06675 -0.138475 0.543193 -0.158512
59 1 2.75913 8.5559 2.98763 2.89771 0.442734 2.46976 0.609128 -4.09397 0.818693 -0.171546 -0.587417
28 1 4.2705 10.042 1.50548 2.11666 -0.443416 4.40305 0.126414 -4.17112 0.117108 -0.839493 0.146705
29 1 5.67196 8.50857 0.096319 0.341976 0.386457 -0.574018 0.222791 -4.06967 0.601177 0.822786 -0.690367
30 1 7.07693 9.95439 1.52559 2.18697 -2.371 1.64036 0.0791928 -4.14064 0.177228 -0.0022403 0.0962211
61 1 5.64975 8.56017 2.95448 0.806705 -3.28061 0.420556 0.227615 -4.04702 -0.0612907 0.361225 -0.417978
33 1 11.432 11.4726 2.90256 -0.0740839 -3.17455 0.159847 0.133664 -4.19274 -0.0797411 -1.03321 -0.259091
39 1 8.59372 11.3322 2.90886 2.42331 -0.125285 -0.392649 0.0529496 -4.09201 -0.128352 0.205481 0.278639
57 1 11.3769 8.72461 2.88139 2.15552 1.73146 -2.22213 4.67936 -4.10013 -0.0653318 -1.43742 0.406234
32 1 9.92358 9.93542 1.44711 -0.709117 0.437599 -1.08278 0.1755 -4.05588 0.331065 0.450659 0.164441
63 1 8.64406 8.53708 2.95212 0.26881 2.05868 3.93192 0.204255 -4.07985 -0.209976 0.121694 -0.22964
34 1 1.4714 1.59343 4.32855 1.29344 -1.32618 0.334176 0.183316 -4.09585 0.407382 -0.326093 0.0387313
66 1 1.46968 1.55452 7.16197 5.87819 -5.95703 -0.387008 0.199538 -4.06493 0.0258489 -0.562231 -0.191023
75 1 2.94454 2.9401 5.73243 -0.0351098 3.5431 1.65648 0.0756175 -4.05122 0.0685575 -0.282497 0.0345374
36 1 4.26094 1.47688 4.28027 4.05482 -1.47329 3.3218 0.119816 -4.13725 -0.0346846 0.441455 0.419357
38 1 7.11467 1.47116 4.3745 -2.6048 -0.797499 3.37053 0.15953 -3.99862 0.655571 -0.118617 -0.276669
68 1 4.38213 1.39294 7.10706 3.49338 1.72459 -1.24078 0.24942 -4.16882 -0.597648 0.966733 -0.115738
70 1 7.15498 1.50937 7.15625 -1.28787 -0.647577 -3.91262 0.093987 -4.10337 -0.212089 -0.48958 -0.311916
77 1 5.8003 2.92481 5.67005 -0.415587 -1.57278 1.35693 0.23908 -4.07318 -0.759555 -0.513732 -0.20106
73 1 11.3272 2.84077 5.75162 -0.922988 -3.83123 -0.563999 0.396541 -4.11781 0.667213 0.723532 0.131771
40 1 10.0843 1.52284 4.22462 -1.56122 0.694925 0.981326 0.309943 -4.01874 -1.07063 -0.206286 0.882805
72 1 9.9773 1.56648 7.12866 -4.76953 1.92111 -2.19245 0.235387 -3.97118 -0.175995 -1.25284 0.303429
79 1 8.65978 2.87964 5.75824 -3.94745 2.11457 3.64137 0.275043 -4.11084 -0.828523 0.601788 -0.821025
42 1 1.46663 4.3423 4.42392 -1.2954 -1.19313 -0.0802578 0.266186 -4.15817 0.582855 -1.31359 -1.64081
50 1 1.43826 6.92929 4.35966 2.10834 -2.1084 -0.559687 4.89573 -3.96806 0.733391 1.8389 0.0861185
74 1 1.56629 4.25582 7.17854 -4.55804 -2.30381 -0.606643 0.174734 -4.0831 -0.610006 -0.360091 0.163157
82 1 1.4093 7.17453 7.23099 0.173667 -0.491902 -1.04971 0.364793 -4.05207 0.0584017 -0.46343 -0.418574
83 1 2.87613 5.63006 5.77253 1.74872 0.326695 0.802335 0.184232 -4.11507 0.64141 1.11967 0.369453
44 1 4.29939 4.29847 4.29954 1.99914 1.96154 5.12063 0.167802 -4.08852 0.513937 0.356039 0.217514
46 1 7.11546 4.41901 4.37354 1.95591 2.79293 -2.72616 0.320603 -3.98743 0.501796 -0.468068 -0.0459227
52 1 4.31688 7.14724 4.30276 0.717804 -0.119889 -1.74296 0.0981571 -4.02515 -0.112204 -0.121385 0.311214
54 1 7.11358 7.25891 4.25079 0.97697 3.10714 -0.953665 0.374207 -4.12938 0.599166 -0.519948 0.48799
76 1 4.41592 4.20224 7.11015 1.27999 -1.96731 -2.72325 5.03281 -4.10167 -0.513868 0.595695 0.379106
78 1 7.06381 4.19691 7.14306 0.889284 -1.3918 2.88838 0.415071 -4.1292 0.809989 0.317516 0.191985
84 1 4.4587 7.08465 7.19037 2.44985 -1.96444 0.297674 0.460231 -3.94427 -1.89705 0.527655 -0.275325
85 1 5.72694 5.79299 5.75077 -1.25095 2.36976 -0.255499 0.161282 -4.14523 0.108544 -0.616516 -0.681857
86 1 7.07224 7.20342 7.08244 -0.871969 -0.440512 -0.840499 0.230368 -4.17257 0.877794 0.194118 0.477772
81 1 11.5026 5.60135 5.80559 0.728266 2.28423 2.80825 0.576578 -3.97665 -1.59898 1.12341 0.974124
48 1 10.0916 4.34425 4.35054 -1.18958 -0.838661 -1.75495 0.231107 -4.12053 -0.33373 0.155645 0.055048
56 1 10.0081 7.11672 4.39564 -1.07426 0.834505 -3.08306 0.31335 -4.15167 0.193854 -0.096398 -0.220449
80 1 9.93043 4.45978 7.13785 2.05911 -2.07163 -3.63578 0.854181 -4.01916 0.399178 -1.27611 -0.120425
87 1 8.47847 5.80653 5.76516 0.76679 -0.0880405 -1.68199 0.232188 -4.03622 -0.0352303 -0.460876 -0.459006
88 1 9.98543 7.2285 7.0474 -1.69064 -1.81558 -0.356998 4.76601 -4.11858 0.32804 -0.733929 0.629016
65 1 0.0616843 11.2997 5.68182 4.25371 -3.1571 -0.867692 0.278393 -4.18538 0.397165 0.825619 0.506871
67 1 2.82851 11.3608 5.72739 -1.61669 -0.00588995 0.0424662 0.196565 -4.08379 0.255018 0.00465338 0.304312
58 1 1.54141 10.0444 4.29091 -3.90179 1.29326 -0.86772 0.22766 -3.96825 -0.387021 -0.173887 0.27065
89 1 0.12773 8.58163 5.63125 1.49814 2.86372 0.758697 0.507797 -4.12177 0.511164 -0.0848529 0.601361
90 1 1.45587 9.94345 7.272 -3.08196 -3.57192 -0.344091 0.309182 -4.06669 -0.2661 0.0316549 -0.489776
91 1 2.85012 8.51523 5.77798 -3.74314 1.29795 -3.99774 0.191849 -4.08814 0.415629 0.11793 -0.179266
69 1 5.73172 11.3215 5.74992 -1.50364 -1.13216 0.129004 0.102714 -4.05721 0.373353 0.398088 -0.595248
60 1 4.25639 10.0534 4.23785 0.02748 2.99487 -0.491186 0.339539 -4.12339 0.21225 -0.562395 0.759407
62 1 7.1605 9.89687 4.34991 -1.23623 3.50935 2.45565 0.105455 -4.13468 -0.276945 0.611747 -0.36349
92 1 4.38825 10.0155 7.11678 3.25933 1.22578 -2.10052 0.381229 -4.02812 -1.11928 -0.758216 0.424486
93 1 5.6905 8.59984 5.74878 -2.33863 2.77091 3.43889 0.199203 -4.10696 -0.290254 -0.276146 -0.477931
94 1 7.08761 9.91837 7.19804 1.24608 -1.64933 4.89232 0.169881 -4.1514 0.521837 0.234051 -0.350933
71 1 8.70311 11.342 5.70323 -2.61445 1.57539 0.583679 0.353197 -4.09795 -1.20084 0.72345 0.0816658
64 1 9.98367 9.90099 4.39215 2.42818 4.63854 -0.463164 0.328356 -4.02464 0.0164393 0.612954 -1.37021
95 1 8.5813 8.60296 5.71119 0.108702 1.31989 1.45162 0.108351 -4.08545 -0.452177 -0.23374 0.35525
96 1 9.95161 9.9598 7.1092 -2.88377 1.27859 -3.39849 0.0814596 -4.1128 0.454841 -0.511895 0.619567
98 1 1.62225 1.42582 9.95646 2.03202 1.00054 0.110022 0.528323 -4.14876 -1.34668 0.469115 0.0102725
107 1 2.93257 2.80818 8.55868 -1.04026 -0.068536 -0.0269447 0.0984033 -4.03545 -0.069807 0.635953 -0.216637
13 1 5.73947 2.91383 11.3846 -0.794595 -3.1783 -0.952558 0.0589528 -4.05491 0.254906 -0.0533823 0.383221
100 1 4.24941 1.53135 10.0126 -1.09998 0.622557 1.36901 0.117286 -4.22494 0.667034 -0.715908 -0.262904
102 1 7.13472 1.52486 9.98687 -2.29865 -0.521134 -0.82805 0.0842109 -4.10029 -0.128285 -0.101914 0.0759283
109 1 5.6859 2.81111 8.53423 1.90365 0.955439 -0.101147 0.159976 -4.03279 0.483504 0.0456832 0.29379
7 1 8.52055 0.0430471 11.3305 0.597785 1.35529 0.547923 0.1077 -4.09807 0.0585312 0.145918 0.059725
105 1 11.238 2.85095 8.62488 2.02597 -0.937079 0.29964 0.512999 -4.13073 1.02163 0.787785 -0.375916
103 1 8.49724 0.102889 8.51806 -2.42001 1.7597 -2.34296 0.128898 -4.14391 0.665161 0.0211226 0.347108
104 1 9.95095 1.5177 10.0517 -0.474725 -3.96407 -4.48044 0.205887 -4.05075 -0.335249 -0.859928 -0.0970903
111 1 8.61259 2.79814 8.62101 -1.6687 1.03587 1.67931 0.495863 -4.14869 -0.517865 1.1347 -0.561063
19 1 2.96912 5.66288 11.3601 -1.12216 -2.88437 2.00059 0.108073 -4.10827 -0.213788 0.723745 -0.223867
106 1 1.47809 4.23288 10.0179 1.56444 6.59743 1.67005 0.0841566 -4.12907 0.401238 0.248509 -0.373604
113 1 0.131969 5.62596 8.60047 -2.74578 1.69865 -2.09619 0.318183 -4.06917 -0.424264 0.612087 -0.117268
114 1 1.47602 7.0466 9.98485 0.871461 -1.8248 -3.95394 0.053335 -4.11312 -0.107896 0.50642 0.104948
115 1 2.87929 5.74615 8.63273 -4.38486 0.638548 -1.38341 0.291144 -4.06535 0.613286 -0.559162 -0.852274
108 1 4.39459 4.22978 9.97283 -0.958989 2.66386 -0.241357 0.180079 -4.13889 -0.0797847 0.83651 -0.332093
110 1 7.1359 4.37442 10.0114 3.65465 -0.536076 3.78485 0.220239 -4.12487 -0.0784745 -0.538959 -0.510996
116 1 4.38572 6.98684 10.0088 -2.25273 4.23285 0.929037 0.41254 -4.07082 -0.0674091 0.516703 -0.274177
117 1 5.82134 5.72804 8.44483 -0.0889006 -1.5549 0.650683 0.377883 -4.0384 -0.264934 -0.510606 1.05012
118 1 7.11802 7.17773 9.92605 0.959059 -1.49271 3.77063 0.184595 -4.15334 0.0938369 -0.369632 0.364403
112 1 9.92424 4.34915 9.96999 -2.90001 1.08299 -1.36218 0.161039 -4.0996 -0.0453055 0.205599 0.0586864
119 1 8.4781 5.68382 8.45543 2.55254 0.979021 -2.9726 0.299823 -4.02444 0.218408 0.812322 0.56397
120 1 9.91404 7.11553 9.94436 -1.40485 -0.134333 0.465992 0.125325 -4.0827 0.252511 -0.452994 -0.0780116
25 1 0.0587338 8.46518 11.2957 2.46636 0.414602 -0.916478 0.25434 -4.14301 -0.0722405 0.495142 0.40455
97 1 -0.00405725 11.4412 8.60154 -0.316381 -0.286349 -2.31601 0.30009 -4.12521 0.449806 0.246079 -0.59807
99 1 2.86596 11.3556 8.5293 -2.44956 -1.2906 -0.442624 0.21166 -4.06367 0.745019 -0.131988 -0.141662
121 1 0.00408696 8.52892 8.63214 5.06773 -2.68448 -2.52908 0.235364 -4.07402 0.728221 -0.133884 -0.407828
122 1 1.44009 9.9946 9.91454 0.159584 0.884798 0.585343 0.180774 -4.14786 0.248658 -0.226527 0.553742
123 1 2.88746 8.44254 8.62964 -1.4293 -3.29609 -1.47279 0.288279 -4.08061 0.732931 0.471506 -0.283294
5 1 5.67575 11.3925 11.376 2.13925 0.848332 0.561343 0.0562669 -4.06081 0.463119 -0.130786 0.0324912
101 1 5.65061 11.3739 8.59368 1.03602 0.22928 -1.07681 0.195655 -4.09457 0.605064 0.0444911 0.247858
124 1 4.25463 10.0658 10.0699 2.93379 0.368541 3.51912 0.397302 -4.04162 0.107012 -0.768697 -0.779542
125 1 5.69451 8.52157 8.58551 -0.183625 5.03731 -1.77235 0.187132 -4.10291 -0.418896 0.455445 0.163456
126 1 7.13829 9.9062 9.90514 0.101498 -0.610885 0.178257 0.151419 -4.06162 -0.251159 0.334163 0.621719
31 1 8.59488 8.59968 11.3611 -0.271825 -0.12547 -0.370022 0.123444 -4.13613 -0.213104 -0.131823 -0.278595
127 1 8.63233 8.54862 8.63472 -1.13746 -1.53141 -1.23189 0.396084 -4.05327 -0.748634 0.150819 -0.78846
128 1 10.0535 10.0101 9.94671 -1.40874 -0.816866 1.03671 0.31308 -4.08454 -0.930812 -0.179396 0.303483
