ITEM: TIMESTEP
13000
ITEM: NUMBER OF ATOMS
128
ITEM: BOX BOUNDS pp pp pp
7.6953740267680537e-02 1.1387046259732060e+01
9.4057779927581464e-02 1.1369942220072307e+01
8.2649453055049810e-02 1.1381350546944832e+01
ITEM: ATOMS id type x y z vx vy vz c_csym c_peratom fx fy fz
2 1 1.51432 1.46087 1.48086 -1.20226 -1.97009 1.45948 0.148796 -4.04716 0.39435 0.143048 0.487638
11 1 2.93222 2.90479 0.109577 -0.109382 0.0236743 2.02862 0.101655 -4.10353 -0.211979 0.399686 -0.412663
41 1 0.0678609 2.92109 2.75468 0.761744 -2.9466 0.675052 0.333403 -4.09684 0.289603 -0.250364 1.00494
43 1 2.92276 2.85338 2.98226 -0.478775 -0.0269297 -1.60775 0.106283 -4.08817 -0.24948 0.333079 -0.651929
4 1 4.31924 1.45395 1.54432 -1.27093 0.605653 1.59936 0.167424 -4.05454 0.380221 0.617408 -0.127995
6 1 7.12155 1.57066 1.55429 0.36382 -0.545885 -4.90734 0.25448 -4.09364 0.137552 0.405734 -0.8782
37 1 5.82966 0.0811299 2.81811 -5.11826 3.50526 -1.27843 0.355518 -4.14523 -0.794011 0.10334 0.912891
45 1 5.73046 3.05916 2.95574 -2.75658 -0.90848 1.22583 0.515261 -4.03685 -0.252267 -1.08301 -0.633093
9 1 11.4441 2.82582 -0.00492841 2.42532 -0.0847416 0.0223634 0.431953 -4.08243 -0.353895 0.857312 0.417338
8 1 9.892 1.61577 1.34007 -3.58085 -2.83769 1.27068 4.53607 -4.09128 0.185868 -0.346229 1.01428
15 1 8.49954 2.9705 -0.10571 -1.06398 3.0087 1.04269 0.60929 -4.01023 0.788273 -0.275342 1.73309
47 1 8.59131 2.94451 2.92587 0.279934 3.31206 -0.268323 0.143163 -4.10859 -0.425275 -0.247535 0.0942058
10 1 1.46399 4.32729 1.50713 -0.669183 2.0251 -2.09679 0.0990803 -4.05775 0.251739 -0.0395395 -0.12033
17 1 0.0401645 5.7205 0.156145 1.19412 -2.37968 -0.397636 0.174122 -4.04664 -0.0288481 -0.00522203 -0.285603
18 1 1.44085 7.09884 1.57408 1.86483 -2.62697 -2.95182 0.113825 -4.16083 0.178412 0.251185 -0.0808176
49 1 -0.0204521 5.67037 2.98205 -2.44014 1.36988 -1.23041 0.28388 -4.13494 0.0579286 0.103543 -0.510835
51 1 2.86512 5.74706 2.89081 0.612909 -0.00389076 1.71091 0.0913895 -4.09748 0.361196 -0.367047 0.175398
12 1 4.2346 4.38083 1.4816 0.326691 -1.4191 0.769379 0.262432 -4.04366 0.572064 -0.428032 0.473952
14 1 7.14063 4.25745 1.51106 -0.828335 1.25961 1.28563 0.308691 -4.13205 0.316593 0.500631 -0.365179
20 1 4.40426 7.10659 1.40183 -1.07399 -0.839915 -0.691904 0.4012 -4.10182 -0.902803 -0.152829 0.76901
21 1 5.75143 5.61881 0.107365 -0.279033 0.307607 -0.622193 0.458583 -4.14932 -0.297368 0.244054 0.0713181
22 1 7.06522 7.12093 1.43556 -1.27274 -0.395085 -1.93576 0.320015 -4.0393 0.466844 0.548725 0.367901
53 1 5.75036 5.73465 2.9304 -1.72308 -3.35395 1.96452 0.102049 -4.12027 -0.0303055 0.106647 0.201712
16 1 9.86753 4.25681 1.43057 1.24542 -2.97976 -1.4837 0.361645 -4.09902 0.592948 0.294793 -0.0852764
23 1 8.59194 5.87593 0.162053 0.422305 -0.860558 0.203408 0.669265 -4.03606 -0.0980422 -0.177218 -0.456583
24 1 10.0888 7.25574 1.58475 -0.149351 -0.627911 0.597387 0.398167 -4.05296 -0.689969 -0.405445 -0.333837
55 1 8.57601 5.73838 2.94065 2.32705 -2.88578 -1.16601 0.0752004 -4.11363 -0.101333 0.179732 -0.274507
1 1 0.120332 11.4355 0.159837 0.349036 2.50898 0.0858291 0.217372 -4.05037 0.0415628 -0.705917 -0.51031
3 1 2.99225 11.3568 0.00948716 -0.895318 -1.4856 -5.00127 0.253446 -4.10558 -0.620281 0.274068 0.851099
35 1 2.98596 11.3101 2.90587 1.44128 0.730683 2.57834 0.088879 -4.05759 -0.791739 0.618959 -0.217896
26 1 1.54712 9.88852 1.5825 -2.65784 -0.755143 5.43749 0.208758 -4.11011 -0.271665 0.616521 -0.370492
27 1 2.82537 8.47894 0.143144 -1.75901 0.876575 0.141857 0.326854 -4.07905 0.280202 0.194593 0.109692
59 1 3.00372 8.55169 2.95518 2.54199 1.05078 -0.943274 0.195215 -4.09009 -0.0576963 -0.424558 -0.258294
28 1 4.35299 9.96789 1.54802 1.99671 -1.72378 -2.25939 0.134691 -4.10193 -0.585247 0.00970182 -0.549616
29 1 5.63306 8.60969 0.121994 1.9161 0.774131 0.0365657 0.339868 -4.07469 0.978546 0.40756 -0.0239956
30 1 7.20792 10.0147 1.53755 0.342841 1.27197 -2.91754 0.225257 -4.05582 0.0212767 -0.27464 -0.924241
61 1 5.79099 8.6367 2.81777 -1.24235 -4.52383 0.959048 0.340964 -4.08639 -0.31905 -0.921205 0.994145
33 1 11.3236 11.407 3.01185 -2.19481 0.340922 2.67161 0.390535 -4.02513 0.196327 0.0182945 -0.850643
39 1 8.48756 11.4544 2.92026 -2.68064 2.73752 -1.6595 0.202236 -4.12444 1.31988 -0.52391 -0.125236
57 1 11.4036 8.56961 2.99468 -2.16051 0.817972 1.76905 0.125349 -4.06792 -0.0755814 0.405778 -0.198027
32 1 10.0046 9.96009 1.52442 -2.74688 0.923873 -1.28565 0.124191 -4.07089 -0.241093 0.676517 -0.0711123
63 1 8.57855 8.61829 2.86463 -2.89652 1.47677 -2.72336 0.209894 -4.11542 -0.152707 -0.534188 0.032126
34 1 1.54517 1.46783 4.33751 -1.81835 1.95949 -2.04795 0.220202 -4.0569 -0.481529 -0.1113 -0.588498
66 1 1.52668 1.34837 7.24052 -1.50282 1.6652 1.50205 0.655885 -4.10381 -0.0259536 1.0264 -0.742694
75 1 2.76612 2.92467 5.66964 2.78089 -1.30303 -4.57344 4.63852 -4.10178 1.0944 -0.727145 0.774071
36 1 4.39067 1.42177 4.32557 2.2897 -1.73413 0.655906 0.21695 -4.19573 -0.361522 0.561704 -0.206487
38 1 7.12262 1.511 4.25177 -2.06993 -2.03303 -2.66004 0.168945 -4.11165 -0.430918 0.91074 0.159652
68 1 4.3429 1.51507 7.08256 -3.21136 -2.41635 2.23627 0.113653 -4.12565 0.0781884 -0.0124002 0.289941
70 1 7.18256 1.41681 7.13423 -1.85487 -0.052899 3.9084 0.281609 -4.0381 -0.22555 0.342682 0.379874
77 1 5.74739 2.83079 5.65957 -1.84906 0.0474328 -1.81946 0.137929 -4.05177 0.0994672 0.704976 0.592532
73 1 11.5002 2.93534 5.8154 -3.86155 1.87238 -2.23765 0.33743 -4.16786 -0.927542 -0.47867 -0.0475743
40 1 10.0385 1.64044 4.31284 3.2774 0.669262 3.43188 0.346957 -3.99268 -0.271368 -0.310595 0.0806665
72 1 9.96276 1.4391 7.2068 -3.68931 -0.94052 4.53198 0.207093 -4.05814 -0.130772 0.207083 -0.230777
79 1 8.58966 2.94552 5.80786 5.43104 -0.534976 4.2531 0.210952 -4.15345 -0.589763 -0.676891 -0.588496
42 1 1.47209 4.28206 4.31822 0.135576 0.786805 -0.579906 0.130455 -4.07833 -0.277226 0.412131 -0.799565
50 1 1.43262 7.15111 4.27437 -0.935318 0.443686 -0.738804 0.203804 -4.11002 0.251001 -0.276849 0.752868
74 1 1.4974 4.28926 7.24939 -0.226927 -2.52596 -2.08431 0.391942 -4.10277 -0.0186526 0.633085 -0.349595
82 1 1.49089 7.0431 7.10493 -0.715975 -3.09608 -0.544324 0.211001 -4.10469 0.139576 -0.056993 0.203733
83 1 2.85413 5.62886 5.66736 1.22985 0.885087 -0.564938 0.199852 -4.07376 0.0784208 0.821379 0.187172
44 1 4.28619 4.23253 4.32544 -1.09085 -0.330997 -0.469042 0.152334 -4.08986 -0.10649 0.739203 0.353162
46 1 7.16526 4.32749 4.3363 -0.929528 2.45768 -1.36266 0.0247566 -4.09048 0.0443444 -0.065321 -0.0189581
52 1 4.30522 7.11922 4.3444 6.74289 -0.100565 -1.22819 0.120289 -4.00378 0.0324219 -0.0722714 -0.332884
54 1 7.21853 7.22858 4.42207 -2.12381 0.468897 0.556683 0.43364 -4.08082 -0.155862 -0.34278 -0.663778
76 1 4.21168 4.29433 7.0464 -5.25044 -2.83744 0.597599 0.362725 -4.07781 0.942782 0.0172327 0.346227
78 1 7.09413 4.33703 7.12801 5.14399 2.80756 -3.17376 0.144039 -4.06074 0.0256505 -0.30463 0.150739
84 1 4.32135 7.13364 7.13963 -1.6629 -1.09976 -0.392224 0.0607283 -4.1177 0.230762 -0.652708 -0.010895
85 1 5.74945 5.76142 5.70659 1.8657 -0.373157 -1.33387 0.0699097 -4.07458 -0.318664 -0.534148 -0.163068
86 1 7.09693 7.14035 7.06564 0.350655 -1.39298 -3.33702 0.153386 -4.13977 0.342112 0.23303 -0.00090318
81 1 11.3112 5.61296 5.69935 3.60719 -1.30919 0.717298 0.308467 -4.12885 0.599056 0.341319 0.137331
48 1 9.98063 4.24331 4.31607 -1.69913 -1.25127 -0.365827 0.13567 -4.05389 -0.0635595 0.107082 0.0491107
56 1 9.9678 7.17736 4.41722 -2.25796 -0.158784 -1.45929 0.182181 -4.15165 -0.136991 0.0530104 -0.32017
80 1 9.8806 4.30608 7.19105 -0.393096 -0.382883 1.65102 0.205722 -4.08041 0.94804 0.0575986 0.346417
87 1 8.56863 5.57966 5.75567 0.473586 -3.08553 1.82524 0.461397 -4.12656 -0.0914904 1.0515 -0.267392
88 1 10.0268 7.12055 7.03811 -0.785718 -1.52955 0.917785 0.315922 -4.12386 -0.395134 0.0348122 0.0933025
65 1 0.0508269 11.4149 5.74273 1.84393 0.266917 0.480636 0.134753 -4.10928 0.226542 -0.478431 -0.130922
67 1 2.93426 11.351 5.66001 0.866433 -1.15318 -1.03537 0.13915 -4.05314 -0.544428 0.304669 0.751233
58 1 1.58609 9.96116 4.28808 3.60083 2.692 -2.87297 0.207038 -4.10987 -0.479449 -0.0387478 0.406433
89 1 0.133568 8.55928 5.80534 3.327 2.50216 2.64383 0.253171 -4.08191 -0.11016 0.279554 -0.497651
90 1 1.48293 9.92958 7.16338 5.35665 -1.28318 -0.75741 0.0780451 -4.13184 0.391002 0.57471 -0.0961896
91 1 2.92739 8.52332 5.83264 1.18648 4.71092 2.29018 0.229258 -4.10747 -0.214105 0.140872 -0.89189
69 1 5.80638 11.3919 5.70707 -1.31281 -1.25043 1.45281 0.108708 -4.04944 -0.132041 -0.511938 0.258013
60 1 4.34286 10.0701 4.34242 -1.15799 0.662692 0.675393 0.305402 -4.13581 0.481716 -0.985697 -0.217587
62 1 7.15545 9.89503 4.31385 1.96059 -0.883238 0.697349 0.401853 -4.18089 -0.207439 0.629167 -0.0600276
92 1 4.28393 9.96675 7.14211 0.327396 1.13367 2.99578 0.190237 -4.13646 0.663364 0.219516 -0.219903
93 1 5.64723 8.53912 5.63105 -0.581529 -0.0368746 -1.52842 0.326925 -4.07391 0.135321 0.275681 0.570595
94 1 7.11215 9.95261 7.09463 -2.23321 -1.38614 -0.535416 0.236606 -4.09601 0.414586 0.075215 -0.154889
71 1 8.51053 11.5129 5.578 -2.00822 0.21045 3.23586 0.787607 -4.09483 0.796416 -0.833717 0.909726
64 1 9.91453 9.96699 4.36889 0.936439 1.30733 1.10375 0.143935 -4.08979 0.823849 0.220427 -0.523706
95 1 8.59041 8.68184 5.71161 2.91396 0.149562 -2.13903 0.330674 -3.97532 -0.570275 -1.16794 1.09188
96 1 9.91241 10.0183 7.14647 -0.689498 1.31819 -0.139023 0.273643 -4.10105 0.145386 -0.146185 -0.0326211
98 1 1.56069 1.51687 9.95193 -2.70447 -0.230713 -2.76216 0.0759889 -4.1509 -0.131305 -0.496881 -0.227843
107 1 2.9343 2.90208 8.47024 -2.1541 -1.5613 1.09529 0.140937 -4.06741 -0.037682 0.0529284 0.841611
13 1 5.70463 2.96162 11.3121 2.57776 0.245377 -2.89405 0.166822 -4.14479 -0.201827 -0.503906 0.356771
100 1 4.28273 1.5054 9.89652 -2.68106 4.31142 0.159027 0.206352 -4.04727 -0.0659145 -0.0407412 0.229321
102 1 7.12696 1.54855 10.0177 -2.01713 0.655538 3.7476 0.103087 -4.01521 0.0519929 -0.560395 -0.527448
109 1 5.815 2.94263 8.62174 -2.277 0.232484 -4.5937 0.32818 -4.12354 -0.30551 -0.134693 -0.535632
7 1 8.52488 0.184814 11.3867 3.22296 -3.53717 2.69327 0.119561 -4.14255 -0.0236018 -0.711031 0.0527312
105 1 11.3912 2.88713 8.58334 1.26685 1.65576 -1.94522 0.042847 -4.09884 -0.175531 -0.149055 -0.348577
103 1 8.51396 -0.0587626 8.63933 0.502328 3.12111 4.21083 0.502878 -4.07289 0.0728987 1.18546 -0.29717
104 1 9.95686 1.51958 10.0199 1.35961 2.98956 4.24806 0.183837 -4.16766 -0.00539191 -0.346358 -0.743273
111 1 8.56788 2.91272 8.56984 -0.435874 0.647175 -2.32376 0.0649292 -4.13223 -0.574677 -0.195577 -0.247325
19 1 2.91722 5.72706 11.3798 -0.896778 2.93034 1.70745 0.0655229 -4.10252 -0.246803 -0.0351885 -0.325637
106 1 1.38276 4.35429 9.90554 1.50806 0.675249 1.46471 0.366628 -4.07423 0.783942 -0.187708 0.464985
113 1 0.0155516 5.79179 8.50195 2.91776 -2.23363 2.0649 0.191199 -4.08163 0.0775641 -0.33453 0.0569313
114 1 1.43007 7.07431 9.99288 1.38816 5.07275 0.736358 0.18786 -4.10716 0.127883 0.550299 -0.0838725
115 1 2.97772 5.71753 8.67853 -4.3713 0.36686 -1.02582 0.510161 -4.02534 -0.540403 0.412925 -0.901557
108 1 4.40098 4.35208 9.89223 3.01633 4.1228 0.16652 0.238351 -4.02998 -0.888598 -0.784866 0.90196
110 1 7.23766 4.45572 10.0096 -0.455733 -5.07126 0.755683 0.530298 -4.12031 -0.552449 0.106534 -0.568412
116 1 4.39126 7.15775 10.0495 1.12062 -0.847103 -0.33737 0.274897 -4.18505 -0.258075 -0.0731658 -0.469117
117 1 5.74412 5.66712 8.57356 -0.618214 -5.31578 -0.00359577 0.292036 -4.07844 0.0020329 0.708542 -0.795972
118 1 6.95589 7.16851 9.97854 0.946042 3.46932 -0.033404 4.76314 -4.11943 0.902556 -0.0544918 0.0629038
112 1 9.88814 4.37546 9.8853 0.683534 2.70291 -0.950875 0.259323 -4.13772 0.819983 -0.0206134 0.577354
119 1 8.47194 5.80535 8.50735 2.34535 -1.37527 3.9767 0.208754 -4.15342 0.188773 -0.0844111 0.0324523
120 1 9.99161 7.15617 9.91782 3.35117 0.467374 -2.52394 0.159138 -4.01962 0.260486 -0.160363 0.890853
25 1 0.0603994 8.61521 11.4504 2.50366 -0.12275 0.723777 0.185764 -4.04064 0.295107 -0.413882 -0.72861
97 1 0.0471285 11.3837 8.56862 1.75478 -1.47 -0.932008 0.102058 -4.04793 0.276533 -0.281812 0.464679
99 1 2.95743 11.3114 8.52772 -0.0614925 -2.5351 -1.73189 0.177209 -4.05164 0.0748605 0.133855 0.342889
121 1 0.11782 8.53796 8.46571 -2.35166 -0.440843 -3.0897 0.168388 -4.08957 -0.530589 0.180994 0.666753
122 1 1.59901 9.95996 9.92186 -0.337125 1.87765 2.45253 4.62315 -4.09222 -1.08082 -0.00103643 0.391078
123 1 2.95848 8.46999 8.52922 -4.46376 2.09483 0.440856 0.202706 -4.10496 -0.670115 -0.174917 0.126199
5 1 5.68977 11.3546 11.3451 3.42615 0.843542 -0.0627573 0.141724 -4.2027 0.3323 0.0367423 0.0985459
101 1 5.76107 11.3805 8.69476 0.644038 -5.46136 -2.37309 0.481082 -4.09047 -0.485225 -0.221931 -0.687896
124 1 4.15804 9.8605 9.98897 -1.92648 1.68857 0.714491 4.7283 -4.07366 1.43846 -0.144133 -0.496161
125 1 5.76268 8.57768 8.45461 -0.625647 2.48629 2.28915 0.373797 -4.06467 -0.349245 0.0575428 0.472481
126 1 7.15593 9.91393 10.0092 0.888466 -2.07253 0.620302 0.178307 -3.97486 -0.412946 -0.16317 -0.480933
31 1 8.55168 8.66077 11.3574 1.4185 1.74644 2.29195 0.19846 -4.07113 0.430492 -1.21154 0.442314
127 1 8.61376 8.3956 8.53072 1.47593 1.00377 -2.22964 4.72531 -4.04974 -0.505336 1.2797 0.24278
128 1 10.0377 10.0558 10.0453 3.16235 -0.413844 -1.23395 0.348306 -4.02729 -0.0720937 -0.557227 -0.371738
