ITEM: TIMESTEP
2250
ITEM: NUMBER OF ATOMS
128
ITEM: BOX BOUNDS pp pp pp
8.1662398109645373e-02 1.1382337601890175e+01
9.2849689356299336e-02 1.1371150310643600e+01
8.2650060360154654e-02 1.1381349939639726e+01
ITEM: ATOMS id type x y z vx vy vz c_csym c_peratom fx fy fz
2 1 1.43444 1.40713 1.51655 -4.05264 -0.460084 -0.0448691 0.214246 -4.04401 -0.172829 0.336575 -0.101735
11 1 2.82105 2.85868 0.178456 0.999173 2.28454 -0.947804 5.04169 -4.10655 0.273544 0.382121 -0.698342
41 1 0.0927081 2.90767 2.98732 2.6855 1.16245 3.72357 0.22309 -4.09718 0.130698 -0.048822 -0.440264
43 1 2.81424 2.95056 2.85021 -2.98945 -0.416191 1.8411 0.339097 -4.15551 0.38898 -0.160475 0.0304237
4 1 4.26245 1.54279 1.54151 -1.03845 -0.246115 1.03515 0.0978736 -3.98655 0.052623 0.0826092 -0.418461
6 1 7.14556 1.51681 1.46117 -1.63984 0.07535 -7.79831 0.0862739 -4.1052 0.316315 -0.0122416 0.381658
37 1 5.63302 0.176121 2.85051 -1.11053 0.947219 2.12624 0.36579 -4.08505 0.340699 -0.474773 0.302994
45 1 5.76731 2.94106 2.92359 0.41997 0.425923 -5.56464 0.0724828 -4.13133 -0.17271 -0.163217 -0.209154
9 1 11.4402 2.8473 0.0126018 -2.01145 -0.353132 -3.01852 0.365775 -4.09667 -0.114445 0.0439443 0.098329
8 1 10.048 1.42284 1.4422 -1.54067 -1.44572 1.24759 0.243519 -4.11453 -0.603406 0.519885 0.178263
15 1 8.44608 2.9677 0.0565174 1.78989 2.351 -1.87911 0.427694 -4.05842 0.841615 -1.095 0.0877024
47 1 8.55264 2.89772 2.8823 -0.00204244 1.00567 1.73595 0.140992 -4.07203 -0.0265795 -0.666664 0.55128
10 1 1.35285 4.41758 1.46694 -1.15029 -1.6227 0.91264 0.570999 -4.06155 0.731309 -0.583552 0.565895
17 1 -0.000226408 5.70546 0.102777 1.89549 -0.722866 -1.46628 0.132609 -4.03575 0.0895468 0.211579 -0.915226
18 1 1.5049 7.16876 1.48286 2.61646 -2.52706 -0.901057 0.0720457 -4.154 -0.208893 -0.117211 0.0580867
49 1 0.0565553 5.78643 3.02576 -0.473058 0.104176 -3.52902 0.419753 -4.02414 -0.212554 -0.699936 -0.981943
51 1 2.95775 5.6802 2.87587 -1.81304 -1.4349 2.88094 0.220634 -4.09455 -0.574533 0.695438 0.429008
12 1 4.36313 4.38977 1.58072 -0.909734 1.4249 0.646837 0.234951 -4.03776 -0.400038 -1.06949 -0.976417
14 1 7.2234 4.27775 1.5184 -1.13482 -1.16014 0.224133 0.219433 -4.06941 -1.13075 0.0288461 -0.424847
20 1 4.31994 7.08612 1.51318 1.02949 -3.03521 0.927863 0.105888 -4.17404 -0.0415104 0.492212 -0.148404
21 1 5.80318 5.7404 0.201247 2.78335 -1.12289 2.10085 0.33565 -4.15674 0.034553 -0.264295 -0.410415
22 1 7.12706 7.14874 1.5704 -1.63198 1.53367 -2.25857 0.225847 -4.08674 -0.0289792 0.474197 -0.21129
53 1 5.74265 5.67613 2.87408 1.051 2.90416 2.46665 0.199293 -4.07891 0.536537 0.382605 1.12745
16 1 9.95478 4.17557 1.51514 2.11099 4.75707 -0.47541 0.387131 -4.13665 0.266921 0.700926 -0.351091
23 1 8.48328 5.73667 0.0630227 0.433173 0.288111 -0.837212 0.156234 -4.16793 0.204426 0.34242 0.0909601
24 1 10.0269 7.12101 1.4985 -0.325621 2.51438 4.44393 0.125531 -4.12056 0.00129821 -0.280558 0.052319
55 1 8.53948 5.63578 2.83822 -0.576893 0.205525 -1.99718 0.272014 -4.10182 -0.00783609 0.887319 0.224991
1 1 0.0432458 11.2708 0.0751605 1.09921 -1.42026 -0.411328 0.0726786 -4.07947 0.475271 0.211973 -0.079014
3 1 2.90274 11.4111 0.0370647 -1.61941 -2.43569 0.999156 0.166185 -4.18516 0.272127 0.19208 0.29085
35 1 2.88589 11.3459 2.85562 -2.88753 -0.222471 -1.12287 0.186981 -4.16951 0.29816 0.18368 0.589219
26 1 1.52993 9.93701 1.4682 1.92331 4.48205 0.18974 0.109158 -4.10943 0.0239433 0.115542 -0.235434
27 1 2.98082 8.5565 0.0205488 -0.875627 3.2774 3.80215 0.152598 -4.07551 -0.275912 -0.145057 0.38148
59 1 2.89761 8.52588 2.94279 1.17814 0.62803 0.498913 0.141853 -4.10902 0.458879 0.524258 -0.476081
28 1 4.31247 9.97859 1.39304 1.69479 -0.557979 -1.02696 0.188234 -4.05623 -0.1867 0.0683958 0.850786
29 1 5.68644 8.60594 0.110212 -2.57608 -0.548253 0.44896 0.136869 -4.04704 0.323144 -0.325173 0.340246
30 1 7.14775 9.93916 1.63067 -0.183072 -3.73659 -3.46543 0.443163 -4.14786 -0.0896089 -0.0352426 -0.913483
61 1 5.61062 8.49797 2.91552 1.83544 -1.6685 1.29399 0.32389 -4.0293 0.346974 -0.027264 -0.303232
33 1 11.4836 11.3634 3.00237 1.60276 -2.85622 -2.17496 0.292718 -4.15445 -0.469795 -0.209847 -0.377373
39 1 8.5293 11.4099 2.91231 -2.67844 1.50631 1.59876 0.196924 -4.00605 0.23017 0.0169173 -0.15354
57 1 11.4652 8.65735 2.88763 0.872327 1.8757 1.37402 0.349644 -4.10643 -0.556334 -0.4917 0.434407
32 1 9.93791 9.89459 1.52174 1.60903 -3.65729 -0.268765 0.161253 -4.15947 0.0695507 0.95036 -0.248789
63 1 8.67338 8.44815 2.8416 1.66994 1.23397 -0.71176 0.583095 -3.97747 -0.632319 0.202497 1.02842
34 1 1.55614 1.57636 4.33385 -1.64556 1.20038 -2.64602 0.212106 -4.08455 -0.501118 -0.804538 -0.564523
66 1 1.50216 1.46452 7.14374 1.04826 1.10073 -3.61052 0.0955071 -4.13478 0.235367 0.497727 0.244389
75 1 2.88129 2.80789 5.71809 1.7957 -0.128029 0.323069 0.304995 -3.97776 0.631887 1.10474 0.687758
36 1 4.33825 1.56874 4.31611 -0.0425492 0.031692 2.54521 0.146961 -4.14297 -0.269973 -0.237057 -0.151405
38 1 7.09273 1.42558 4.38931 -2.82356 -1.33483 -0.10893 0.246601 -4.13854 0.102869 0.150277 -0.843603
68 1 4.37845 1.50858 7.05268 -3.8996 1.5772 1.48867 0.207418 -4.18092 -0.426194 -0.0247992 0.649542
70 1 7.11862 1.49528 7.10528 -1.10432 3.32055 -0.226993 0.0438717 -4.15473 -0.0280103 -0.0426002 0.282841
77 1 5.7961 2.89646 5.72999 1.62906 0.157527 -1.10796 0.126263 -4.0913 -0.361735 0.0960309 0.0214373
73 1 11.3931 2.9612 5.61964 1.33207 -1.08433 0.426044 0.234204 -4.07711 -0.118938 -0.343469 0.380138
40 1 9.90156 1.4748 4.31388 -2.22149 0.863266 2.96621 0.169074 -4.09332 0.395869 0.132297 -0.0327273
72 1 10.0812 1.54465 7.12908 -1.39495 1.32473 -2.12208 0.328153 -4.06291 -0.609621 -0.233284 -0.101856
79 1 8.47591 2.79587 5.73186 0.211213 1.96681 1.90401 0.350959 -4.10452 0.991013 0.255225 -0.440895
42 1 1.59752 4.37376 4.35987 -0.421311 -2.45545 -0.829418 0.26535 -4.12877 -0.515001 0.121545 -0.00878215
50 1 1.49463 7.15592 4.17669 3.09962 2.33662 -1.14865 0.609136 -4.03855 0.22382 0.0831133 1.59152
74 1 1.53688 4.22065 7.05642 3.83687 -0.803666 2.08554 0.694264 -4.05801 -0.17805 0.121797 0.684349
82 1 1.40703 7.36123 7.1554 -1.73428 -0.156366 0.418308 4.26182 -4.01507 0.500073 -1.12604 0.431957
83 1 2.9055 5.80193 5.83817 1.75117 -3.9272 -0.384101 0.401597 -4.099 -0.395308 0.344847 -0.153983
44 1 4.25155 4.31093 4.41929 1.83474 3.51816 -2.33956 0.317795 -4.15913 0.458696 -0.0576569 -0.356487
46 1 7.21919 4.20583 4.33669 -1.82805 -4.04918 -1.7509 0.273023 -4.12812 -0.508705 0.988898 -0.115756
52 1 4.32204 7.10811 4.38941 2.16794 1.20713 -2.41763 0.0924735 -4.11004 0.348675 -0.425346 -0.668599
54 1 7.1049 7.17015 4.33325 1.56307 -4.03098 -1.65537 0.132616 -4.11909 0.556805 -0.0887555 -0.297674
76 1 4.32987 4.32931 7.09547 -4.95747 -2.21103 0.362183 0.186408 -4.08927 -0.323546 -0.306956 0.393685
78 1 7.19878 4.30738 7.00019 -0.213698 0.717312 -2.95708 0.35425 -4.1215 -0.193395 0.401601 0.558121
84 1 4.42006 7.14937 7.24271 -2.30681 -1.59933 -2.75585 0.277062 -4.09505 -0.211972 -0.0808925 -0.200411
85 1 5.76157 5.76415 5.7856 0.576441 -0.288145 -3.34433 0.147385 -4.07406 -0.0858333 -0.331468 -0.428991
86 1 7.12822 7.12584 7.16862 -0.0766228 -3.71311 -1.37264 0.0510768 -4.10798 0.118745 0.0771057 0.0343395
81 1 11.4815 5.83183 5.86277 -0.0354417 0.317209 -7.08575 0.937556 -4.09067 -0.239964 -0.622438 -0.871966
48 1 9.9067 4.40614 4.28803 -1.78407 -1.88299 -2.06937 0.299827 -4.11796 0.487014 -0.491319 0.716249
56 1 9.91735 7.08802 4.38667 -0.653846 2.66319 0.435784 0.380389 -4.05331 0.498023 0.750514 -0.54726
80 1 9.91567 4.26802 7.01389 -0.82565 2.80806 1.21793 0.435283 -4.0633 0.300707 0.482847 0.412302
87 1 8.55763 5.76816 5.72049 -0.081808 1.32236 4.35894 0.0929001 -4.08042 -0.219197 -0.042241 0.389534
88 1 10.0209 7.18933 7.12605 2.01201 -0.157353 -2.83311 0.0934103 -4.07326 -0.25429 0.133935 0.0970275
65 1 0.15383 11.3929 5.66163 3.69381 -3.68959 2.61552 0.203145 -4.1412 -0.5051 0.113309 0.54825
67 1 2.96734 11.4061 5.6772 1.92074 -0.264047 -2.15365 0.113242 -4.05696 -0.0813883 -0.272058 0.290745
58 1 1.56343 9.9892 4.46328 -3.8102 -1.18915 3.24612 0.503632 -4.03116 0.353479 -0.556038 -1.06486
89 1 0.0745684 8.62502 5.66914 -0.257428 -1.06458 2.06926 0.261242 -4.14743 -0.261401 -0.41735 -0.150446
90 1 1.56326 9.84085 7.11897 2.97516 -0.597625 -2.14187 4.65716 -4.12062 -0.2565 1.50126 0.136293
91 1 2.98543 8.43796 5.75027 2.84284 2.36103 -3.84497 0.466222 -4.13437 -0.186985 0.726142 0.0182258
69 1 5.70583 11.3174 5.70856 2.69538 0.899902 0.884485 0.111476 -4.10472 0.640063 0.225578 -0.33021
60 1 4.37848 9.89075 4.32127 3.31954 2.26074 -3.711 0.1318 -4.08156 -0.395983 0.599009 -0.0126374
62 1 7.11615 9.91849 4.18251 0.647033 -0.652763 4.42391 4.77832 -4.13037 0.278644 -0.0214742 0.659915
92 1 4.36167 10.0456 7.10788 -2.03671 0.456909 0.65927 0.234668 -4.12789 -0.600868 -0.765537 0.159614
93 1 5.76019 8.53186 5.78704 1.13866 -2.25072 -0.627505 0.0853755 -4.13986 -0.117784 0.0696739 -0.0935413
94 1 7.10411 9.94228 7.21104 3.68813 2.61033 0.527036 0.15385 -4.01809 0.875427 -0.19985 -1.33622
71 1 8.568 11.357 5.71586 2.46368 -0.630537 4.53366 0.0768055 -4.10869 -0.132971 -0.193148 0.411868
64 1 9.98072 10.0421 4.24994 1.87298 -1.93765 -1.32322 0.248434 -4.05738 -0.511505 -0.64202 0.259295
95 1 8.56705 8.58952 5.81883 -0.779021 -0.0368259 -0.922353 0.219573 -4.05918 -0.112229 0.164164 -0.434643
96 1 10.0354 10.0263 7.16056 1.00883 1.53983 0.838119 0.145043 -4.06787 -0.175977 -0.0466961 -0.254858
98 1 1.49891 1.4067 9.92617 -0.48943 -2.72824 -2.59848 0.240186 -4.0625 -0.345176 0.497231 0.0656245
107 1 2.98401 2.90321 8.71006 0.948828 3.18557 5.42013 0.829742 -4.02328 -0.447799 0.351947 -0.947945
13 1 5.69637 2.89448 11.3734 -3.26801 -1.77325 0.626783 0.163295 -4.15129 0.0596531 0.0632103 0.323087
100 1 4.41741 1.42743 9.79444 -0.948132 -0.966905 0.874958 5.22455 -4.00789 -0.07692 0.259083 1.08363
102 1 7.08802 1.44902 9.95701 -4.20159 1.06981 4.4041 0.164157 -4.14128 0.311957 0.641526 -0.251004
109 1 5.76181 3.01571 8.47869 0.640358 -1.76228 1.22564 0.433328 -4.09194 -0.102906 -0.475449 0.339395
7 1 8.52385 0.0371484 11.331 0.597842 -2.8937 2.58669 0.131333 -4.01681 -0.241751 -0.0509897 0.637827
105 1 11.3736 3.01231 8.56113 2.43381 -2.9265 0.126133 0.408985 -4.05633 -0.533026 -1.07174 -0.412759
103 1 8.46513 0.118586 8.52202 -0.21214 1.54209 0.154944 0.178788 -4.09181 0.869098 -0.316454 -0.00340081
104 1 9.86219 1.45495 10.0114 0.159858 2.22462 -0.332185 0.262046 -4.09246 0.647583 0.503213 -0.592789
111 1 8.51336 2.95333 8.45024 -1.02883 3.75956 -2.51628 0.232718 -4.11433 0.255398 -0.346111 0.662926
19 1 2.8873 5.79443 11.4575 -0.705701 2.46976 4.69306 0.150001 -4.03546 -0.272715 -0.794064 -0.705671
106 1 1.42751 4.28373 9.87527 1.07305 -0.1918 0.423551 0.376076 -3.93652 0.900181 0.967484 1.44896
113 1 0.0564995 5.71395 8.53391 -2.86584 -2.12209 -1.31854 0.112911 -4.13418 -0.144798 -0.0787655 -0.0629208
114 1 1.46165 7.19122 9.97944 0.0933483 -2.31961 -0.940061 0.0878831 -4.08711 -0.0763153 -0.071901 0.0887365
115 1 2.80345 5.7631 8.53561 -1.34269 -0.453327 3.00896 0.395523 -4.07673 0.47109 -0.169632 -0.101356
108 1 4.32191 4.38205 10.1973 -0.0120597 -1.19715 2.43937 0.749998 -3.94516 -0.172466 0.157516 -1.19348
110 1 7.14831 4.24738 9.92214 2.95384 -1.61243 2.61624 0.18835 -4.00455 -0.414162 0.721585 0.151673
116 1 4.39181 7.0893 9.98256 -4.10523 -0.476163 -0.756944 0.249548 -4.14533 -0.470192 0.0976446 0.0569919
117 1 5.77191 5.67347 8.53789 1.20139 4.41475 1.8212 0.275704 -4.10119 -0.183913 -0.164437 0.114076
118 1 6.93861 7.25567 9.9809 0.165376 -0.733361 2.78575 4.72594 -4.00501 1.58352 -0.96602 0.0160364
112 1 9.90226 4.31409 10.0606 3.10218 1.50711 0.294917 0.292176 -4.03956 0.336502 -0.161458 -0.502406
119 1 8.55711 5.77376 8.54935 -1.52986 3.32424 -1.35036 0.143434 -4.14938 -0.0740288 -0.324068 0.208803
120 1 9.92724 7.2297 9.99475 -1.5961 1.26032 3.00963 0.143926 -4.00977 0.685686 -0.495432 -0.402513
25 1 0.0297446 8.55292 11.4303 0.306066 -2.24145 0.617944 0.081967 -4.109 0.142859 -0.0363207 -0.126793
97 1 0.102664 11.3903 8.52291 2.21195 0.446947 -4.93406 0.103832 -4.00127 -0.109237 -0.34452 0.524513
99 1 2.95743 11.297 8.5834 -0.64763 0.462168 3.05501 0.167939 -4.03478 -0.357138 0.345692 -0.675164
121 1 0.0523964 8.70681 8.58449 3.12411 -1.06996 -0.0227112 0.29412 -4.06587 0.14404 -1.1244 -0.0756559
122 1 1.51538 9.93414 10.0077 -0.682105 -4.74943 -3.41519 0.13134 -4.17445 -0.0671862 0.0380626 -0.38885
123 1 2.99872 8.57243 8.53055 0.843664 -0.105061 0.577373 0.25212 -4.07931 -0.0891066 -0.268833 0.454077
5 1 5.74853 11.4611 11.4567 0.080257 2.71619 -0.554678 0.337151 -4.08907 -0.373668 -0.788879 -0.336543
101 1 5.81393 11.3515 8.44972 1.62359 -1.55374 3.34673 0.214269 -4.07235 -1.04119 0.511402 0.945233
124 1 4.32542 9.99394 9.97802 -4.24676 0.892478 1.6061 0.0892922 -4.17715 0.49337 0.050793 -0.105615
125 1 5.75879 8.63994 8.57368 -3.61475 -1.76586 0.421381 0.168979 -4.11249 -0.80826 -0.265135 -0.405307
126 1 7.07891 9.99624 9.97888 -0.555383 -0.288542 -0.270519 0.125776 -4.15442 0.376565 -0.0705045 0.145463
31 1 8.53865 8.50538 11.356 -5.08725 3.26249 -0.0720993 0.185126 -4.12898 -0.361329 0.279507 0.45737
127 1 8.56631 8.52975 8.53326 -0.616116 1.43431 -3.84771 0.155065 -4.17061 -0.317744 0.404076 0.257969
128 1 9.94877 9.93695 10.0026 1.92684 0.194909 -0.664294 0.0829443 -4.11626 -0.215662 0.550681 -0.309504
