ITEM: TIMESTEP
5000
ITEM: NUMBER OF ATOMS
128
ITEM: BOX BOUNDS pp pp pp
9.4267348134111195e-02 1.1369732651865636e+01
8.4361662809847360e-02 1.1379638337189981e+01
8.2649905003034818e-02 1.1381350094996847e+01
ITEM: ATOMS id type x y z vx vy vz c_csym c_peratom fx fy fz
2 1 1.37543 1.34202 1.57029 -1.21593 1.24794 1.03157 0.546522 -4.07179 0.454805 0.572501 -0.343139
11 1 2.81134 2.9328 0.062299 -1.10674 -3.83548 -2.94317 0.183342 -4.08245 0.433757 -0.18658 0.448012
41 1 0.0355967 2.95163 2.97872 -2.01673 2.00971 1.79197 0.235156 -4.07209 0.588884 -0.0124299 -0.637006
43 1 2.80694 3.00778 2.90167 1.0428 1.39725 -0.767469 0.400645 -4.09598 0.127261 -0.636563 -0.704524
4 1 4.23291 1.46938 1.51736 -1.75028 -0.334304 1.85013 0.174418 -4.04117 -0.0521943 0.204949 -0.159404
6 1 7.16472 1.47453 1.38632 3.14412 -0.531474 -0.324038 0.150422 -4.13877 0.325924 0.560398 0.762534
37 1 5.7989 0.141077 2.84181 0.237627 0.465036 3.54152 0.194768 -4.15025 -0.326326 -0.0366887 0.113836
45 1 5.63042 2.86889 2.77687 3.01136 0.862236 -0.108168 0.4736 -4.0343 0.996974 -0.197251 0.238564
9 1 11.3756 2.92975 0.0519857 0.574112 1.74217 -0.862676 0.174325 -4.06597 0.0789859 -0.30568 0.14206
8 1 9.96958 1.48313 1.51694 1.44924 0.359099 0.266283 0.0760033 -4.24757 0.0651112 0.0011162 -0.35155
15 1 8.52951 2.93157 0.109146 3.00141 5.51803 1.77092 0.122824 -4.11789 0.315459 -0.134885 -0.136935
47 1 8.58984 2.92183 2.7776 -3.41181 0.956837 -1.57582 0.174569 -4.00894 -0.31082 -0.267005 1.10203
10 1 1.40363 4.35367 1.40713 -2.1878 2.05972 -0.298135 0.252093 -3.9907 0.543773 -1.07197 1.16443
17 1 0.178392 5.73512 0.0716363 1.37052 2.91126 4.32927 0.264928 -4.10785 -1.36125 0.46827 -0.203754
18 1 1.54311 7.02099 1.64376 -0.198037 2.06822 3.30566 0.498181 -4.07815 -0.456761 1.87372 -1.29447
49 1 0.124302 5.74677 2.90402 -1.65616 -2.73203 -0.347642 0.135686 -4.0896 -0.945043 -0.469254 0.282115
51 1 2.82908 5.62995 2.89943 -0.791283 0.63609 -4.45905 0.482362 -4.16659 1.05491 -0.323365 0.614576
12 1 4.42789 4.42887 1.4131 -2.89497 -1.62961 0.802373 0.657162 -4.05534 -0.542843 -0.483002 0.270641
14 1 7.2123 4.31896 1.50562 0.683035 -0.66539 -0.362717 0.229472 -4.14154 -0.842669 0.158256 0.0401965
20 1 4.31966 7.12875 1.52891 -2.68212 0.657539 4.46289 0.0806949 -4.14142 0.335329 -0.442197 0.271647
21 1 5.82186 5.76656 0.0198052 -3.81222 -0.209207 -1.38799 0.366894 -4.10966 -0.648386 0.37013 0.496102
22 1 7.12864 7.14712 1.4874 -1.83695 2.75727 -2.04083 0.0785224 -4.10957 0.297561 -0.655995 0.352999
53 1 5.74385 5.7783 2.92875 -0.857344 -3.82421 1.86107 0.197147 -4.04738 0.451275 -0.587193 -0.481025
16 1 9.95237 4.25968 1.47076 -1.04195 -1.66343 1.54491 0.174091 -4.09984 0.316591 1.17502 0.0397694
23 1 8.49417 5.71397 0.0596399 1.4344 1.18744 0.153305 0.149606 -4.12877 0.363405 0.496755 -0.103236
24 1 9.93492 7.24099 1.46606 -0.0295315 -0.868048 3.58385 0.25528 -4.03832 0.39837 -0.966941 0.221844
55 1 8.52124 5.78753 3.01765 3.61936 2.60007 0.905373 0.364711 -4.0453 0.124492 -0.405125 -0.881861
1 1 0.0207052 11.3047 0.0780321 -1.40377 -1.82729 -4.02441 0.134657 -3.97149 0.422758 0.151364 -0.157776
3 1 2.94975 11.312 0.208284 0.494791 1.83174 0.842618 0.318593 -3.95111 -0.201405 0.630382 -1.10981
35 1 2.95433 11.3236 3.02576 -0.329222 -2.13247 -1.11431 0.33535 -4.06336 -0.620213 0.613238 -0.914118
26 1 1.54948 9.91404 1.44916 -1.08278 -1.79786 -2.63785 0.253611 -4.12863 0.253234 0.415994 0.601591
27 1 2.96435 8.33936 0.0936738 -2.39199 -0.0629663 0.846542 0.566151 -4.03684 -0.742565 1.69779 0.137804
59 1 2.93906 8.53608 2.93916 1.29946 -0.608602 2.47839 0.0778953 -4.09071 0.118441 0.282535 -0.341739
28 1 4.3213 9.92035 1.5288 -2.44772 -2.36886 -1.98598 0.0937936 -4.12478 -0.00361607 0.120501 -0.0994835
29 1 5.76833 8.48409 0.177897 2.1414 0.275515 -3.1031 0.24667 -4.11914 -0.575296 0.997737 -0.913468
30 1 7.18743 9.95142 1.50733 -6.60356 0.32387 -0.311282 0.0505491 -4.12419 -0.344649 0.0734973 -0.0784538
61 1 5.80769 8.58807 2.87198 0.395699 0.301254 1.94288 0.160848 -4.13047 -0.137277 -0.284046 0.202515
33 1 11.3307 11.3139 2.97981 1.48973 -0.0304377 -2.85666 0.231694 -4.08533 0.064571 -0.333933 -0.0817192
39 1 8.49424 11.4078 2.87964 0.280151 1.35474 -0.0877321 0.0907832 -4.10706 0.37911 -0.405853 -0.0488182
57 1 11.3904 8.67317 2.88943 0.292016 0.6133 0.275624 0.389446 -4.06428 -0.334598 -0.571716 0.283699
32 1 9.9429 9.96004 1.51654 2.4751 -3.13983 0.561262 0.0700987 -4.12753 0.290186 -0.291598 -0.252864
63 1 8.5147 8.49688 2.85344 -4.14744 -0.745288 -2.67567 0.221865 -4.12448 0.0282519 0.54121 0.659783
34 1 1.49038 1.52455 4.28961 -5.98693 -0.456839 -0.0950536 0.116884 -4.11115 0.103574 0.020424 0.241385
66 1 1.50758 1.5032 7.09097 4.63493 -4.95947 1.12838 0.106963 -4.09965 0.718097 -0.0728989 0.47866
75 1 2.93649 2.9987 5.67344 -1.87307 0.165013 2.02564 0.240098 -4.09173 -0.272497 -0.0578611 0.155199
36 1 4.30071 1.5497 4.30362 0.923921 0.952013 -3.92499 0.171037 -4.11984 0.199952 -0.204827 -0.0885234
38 1 7.21714 1.52425 4.25909 -2.53071 -3.76229 3.38069 0.180842 -4.09214 -0.590835 0.0669203 -0.0761405
68 1 4.22685 1.67508 7.16795 -1.14637 3.36448 -1.24948 0.670707 -4.09393 0.47281 -1.09451 -0.194531
70 1 6.98245 1.53535 7.28159 -1.08649 -0.445132 1.1775 0.732194 -3.94782 1.09791 -0.119984 -0.587059
77 1 5.79457 2.839 5.76696 -0.508029 -7.03111 0.364634 0.41642 -4.05045 -0.500289 0.752445 -0.276502
73 1 11.4106 2.87059 5.78929 -0.587444 -0.527987 -1.48606 0.177439 -4.09129 -0.451053 0.336468 -0.656646
40 1 9.93612 1.48597 4.21592 2.5583 1.60891 -0.750792 0.297581 -4.11662 0.118141 0.0890371 0.881297
72 1 9.94804 1.52105 7.10701 -0.924897 0.197421 -0.521083 0.10853 -4.00515 0.436235 0.669724 -0.200476
79 1 8.48163 2.84338 5.78005 0.490767 1.18368 -0.100835 0.306516 -4.05381 0.364823 0.474092 -0.042405
42 1 1.43841 4.39769 4.35983 -0.343472 1.25855 -1.5022 0.176804 -4.07851 -0.211523 -0.525618 -0.0485874
50 1 1.53517 7.24571 4.27957 2.17095 0.390359 -2.3656 0.259011 -4.09662 -0.713938 -0.627555 0.536487
74 1 1.52154 4.31423 7.18957 0.401811 -1.00823 -3.58318 0.101206 -4.15231 0.0209903 0.0111896 -0.0131206
82 1 1.58116 7.10081 7.12154 -0.0816049 4.88138 0.54954 0.219859 -4.09255 -0.170672 0.128304 0.064404
83 1 2.85022 5.7753 5.64287 4.4153 2.99708 -5.27654 0.325612 -4.07898 0.663442 -0.5483 -0.0922413
44 1 4.35377 4.20623 4.18617 3.26046 0.0989874 -1.20586 0.545961 -4.05371 0.14354 0.874072 1.08577
46 1 7.10827 4.1981 4.23182 -0.0752001 0.967754 -3.16832 0.368911 -4.11099 0.108122 0.590727 0.4029
52 1 4.3429 7.07616 4.24561 0.386826 -0.66917 -0.875732 0.187696 -4.10762 -0.406786 0.681796 0.432857
54 1 7.07292 7.16889 4.33274 -0.285248 -1.41756 -0.468615 0.109626 -4.14744 0.320973 -0.0208771 0.124246
76 1 4.3787 4.40328 7.21204 -2.11942 -2.68352 1.8502 0.249911 -4.14452 -0.374372 -0.578499 -0.438747
78 1 7.09729 4.46624 7.15024 -0.999548 2.72461 2.27699 0.417433 -4.04443 0.379887 -1.20369 -0.0404449
84 1 4.3383 7.06285 7.08207 4.17284 -4.3124 -2.62277 0.246323 -4.13357 0.0380909 0.278607 0.68436
85 1 5.69889 5.69278 5.64866 -1.22627 1.7753 1.63384 0.165373 -4.05763 0.120569 -0.123702 -0.0664372
86 1 7.07111 7.1255 7.01899 -2.92101 -2.74859 1.14553 0.357864 -4.15246 -9.27505e-05 0.22498 0.7105
81 1 11.4342 5.74044 5.80368 1.9214 -0.390985 -0.562771 0.158815 -4.08923 -0.394698 0.224519 -0.37643
48 1 9.98945 4.34928 4.35591 -4.68612 -1.56215 -4.4959 0.0805224 -4.10298 -0.543239 -0.533468 0.176904
56 1 9.98492 7.11786 4.27467 0.653021 0.966794 0.00720723 0.166272 -4.05146 0.265986 0.579291 0.719602
80 1 9.96147 4.32086 7.16625 -0.963103 2.275 1.78712 0.0333896 -4.05576 0.0616997 0.188005 0.0402137
87 1 8.51526 5.70437 5.72251 0.952326 -0.0917723 0.565553 0.0661258 -4.08252 -0.000737949 0.151363 -0.183019
88 1 9.93934 7.15139 7.11926 3.26874 -0.620465 0.0635236 0.141171 -4.04735 0.0863281 -0.296173 -0.177427
65 1 0.10988 11.3462 5.75078 3.25538 -3.95922 1.291 0.132166 -4.21583 -0.151589 0.0955838 -0.225639
67 1 2.92606 11.4324 5.69432 -0.302656 -0.454653 0.981273 0.102314 -4.09102 0.234577 -0.120665 -0.157494
58 1 1.53648 9.93615 4.32477 -1.1099 2.14263 2.06442 0.119215 -4.05189 0.0909262 0.194725 0.182864
89 1 0.0869398 8.64343 5.76715 3.07878 -3.30676 3.40243 0.259619 -4.15572 0.338224 -0.503285 -0.155607
90 1 1.73102 9.95652 7.1138 0.399643 -1.18883 -2.15245 4.59218 -4.01853 -1.38138 0.607528 0.460524
91 1 2.92733 8.49225 5.78835 -0.966221 -1.51115 -4.3931 0.37846 -4.07505 0.69777 0.325566 -1.06353
69 1 5.75305 11.431 5.71211 0.850937 -0.327054 0.813849 0.0896538 -4.12987 -0.278549 0.174564 0.402793
60 1 4.47378 10.0341 4.18541 5.16715 1.79109 0.569175 4.355 -4.00793 -0.807931 -0.774971 1.21997
62 1 7.11456 10.0197 4.36444 -1.19274 1.05742 2.54582 0.111808 -4.129 0.247411 -0.308997 -0.350558
92 1 4.24869 10.0308 7.13711 -3.45785 0.257644 -5.0385 0.18794 -4.05616 0.842307 -0.0907842 0.0296914
93 1 5.67688 8.60516 5.73297 0.407986 -0.864765 0.124289 0.191866 -4.07718 -0.144706 -0.213879 -0.137674
94 1 7.08056 9.91478 7.15979 1.34409 2.31151 -1.04228 0.200771 -4.1202 0.730005 0.188817 -0.0812345
71 1 8.53504 11.3591 5.76038 4.55639 3.84088 1.753 0.186487 -4.15269 -0.583878 0.939393 0.570276
64 1 9.80034 9.96633 4.41953 0.0055631 1.90081 1.37549 0.476635 -4.03759 0.673583 -0.378783 -1.00661
95 1 8.46741 8.5406 5.75419 -1.1942 -0.10668 3.38403 0.064086 -4.08816 0.443914 -0.171638 -0.190101
96 1 9.91693 9.96311 7.1342 -1.0924 1.73547 0.802859 0.188906 -4.06593 -0.078351 -0.222532 -0.0388524
98 1 1.53953 1.47732 9.9285 1.10167 1.78979 0.799503 0.154182 -4.06708 -0.468186 -0.69483 0.652859
107 1 2.91516 2.90112 8.65919 -1.43597 0.612386 1.07295 0.29568 -4.07591 -0.39903 0.44813 -0.50574
13 1 5.74596 2.88899 11.3415 -3.76677 -1.2712 2.4868 0.194375 -4.10053 -0.853326 -0.442102 0.83988
100 1 4.32142 1.53857 9.96573 -2.26379 -0.291517 1.02847 0.126858 -4.09423 0.0719929 -0.723769 0.469306
102 1 7.26637 1.48065 10.0805 1.20491 -0.786149 -0.59986 0.440435 -4.10661 -0.679998 -0.546178 -0.792732
109 1 5.68248 2.94583 8.65997 -0.35597 2.37388 0.0614837 0.180385 -4.10514 0.447217 0.00263653 -0.331288
7 1 8.58676 -0.0449031 11.4199 0.0761565 0.565377 -2.91353 0.301725 -4.03515 -0.0976154 0.605151 -0.370265
105 1 11.3901 2.88061 8.53096 0.19921 -1.25559 -0.913634 0.0758751 -4.1117 -0.287856 -0.0771785 0.310735
103 1 8.6405 0.211051 8.45057 0.479531 0.632983 -1.82149 0.723286 -4.06284 -1.01616 -1.16222 0.780286
104 1 9.9528 1.45537 10.0323 3.39691 1.7081 4.38441 0.238024 -4.15769 0.194337 0.032134 -0.386181
111 1 8.49977 2.9129 8.63469 1.25032 -2.94092 2.26131 0.0970598 -4.11412 0.00542216 0.164416 -0.801789
19 1 2.81518 5.73152 11.4433 -2.70941 0.911886 0.630495 0.279674 -4.19447 0.565366 -0.0594045 -0.382327
106 1 1.45729 4.40215 9.93324 -0.854887 2.64761 -2.33731 0.196812 -4.14834 0.256321 -0.715131 0.05496
113 1 0.143648 5.80317 8.60827 0.918994 -2.06162 3.45771 0.203429 -4.10436 -0.983487 -0.330057 -0.582772
114 1 1.55117 7.09 9.96615 0.270819 -0.178759 0.856662 0.0607833 -4.11077 -0.227817 0.634492 -0.017659
115 1 2.90692 5.70223 8.59372 -0.0780895 -0.414911 -1.68675 0.0694115 -4.08534 -0.105778 0.577589 -0.560508
108 1 4.22521 4.38211 9.98188 -0.216593 -1.10245 0.813809 0.23047 -4.15015 0.575602 -0.23426 0.260189
110 1 7.04866 4.26131 10.0797 -1.43175 0.707244 1.31531 0.401608 -4.0421 1.36582 0.428199 -1.28762
116 1 4.31376 7.11216 9.98593 1.93654 -0.340372 0.257664 0.0993276 -4.08147 0.522192 -0.398145 -0.300005
117 1 5.82068 5.76267 8.61447 1.28734 0.538608 0.929732 0.403896 -4.07094 -0.313275 0.104563 0.124267
118 1 7.09945 7.28908 9.95533 -0.0933064 -2.75 0.226165 0.458009 -4.03147 0.430001 -0.620031 -0.243701
112 1 9.89743 4.25176 9.98698 -2.08565 -0.101038 2.49508 0.234012 -4.05215 0.769019 0.631186 -0.0987571
119 1 8.55336 5.83092 8.60028 2.34581 0.302628 0.289635 0.227947 -4.10449 -0.234383 -0.519495 0.121661
120 1 10.0571 7.17329 10.0555 3.65456 -2.73544 1.44655 0.299858 -4.00246 -0.179541 0.442415 -0.473977
25 1 0.226814 8.49465 11.454 3.54621 -5.73885 3.04025 0.305627 -4.03118 -0.595844 0.230924 -0.350639
97 1 0.060162 11.3403 8.41372 -0.590429 -2.03947 -1.60478 0.358832 -4.12467 0.56952 0.315479 0.50034
99 1 2.97871 11.4202 8.56198 -1.3204 0.97372 -0.02711 0.121251 -4.0605 -0.293693 -0.0669624 0.0194313
121 1 0.238582 8.57527 8.38042 1.81121 -0.270312 -1.96878 4.89611 -4.11679 -0.573282 -0.314194 0.902363
122 1 1.51316 9.96224 9.97056 -2.79974 3.93933 0.151656 0.16367 -4.09707 0.271443 0.182374 0.00327546
123 1 2.91395 8.53461 8.60322 -0.262835 0.0759558 -3.12246 0.108859 -4.12979 0.459532 -0.0328943 -0.354618
5 1 5.75867 11.4088 11.4293 2.74635 0.587465 1.53353 0.0862322 -4.08246 -0.306727 -0.519929 -0.397388
101 1 5.76867 11.326 8.55299 0.434069 -0.903889 1.96573 0.26138 -4.02257 -0.707252 0.61733 0.379834
124 1 4.32586 9.98772 10.0254 0.423952 0.960787 -0.166907 0.135232 -4.07388 -0.0862663 -0.438873 0.164793
125 1 5.69137 8.59353 8.52902 -3.26819 2.15548 -0.61909 0.131683 -4.08597 -0.229908 -0.426968 0.104788
126 1 7.23757 9.94628 9.91768 1.77687 -1.44179 -1.38494 0.178949 -4.08498 -0.334659 0.395274 0.171989
31 1 8.46321 8.52296 11.4096 -0.312452 0.202913 -1.63486 0.350127 -4.11342 0.833575 0.2905 -0.0522689
127 1 8.59438 8.47693 8.50734 0.983631 1.1784 -0.526606 0.250141 -4.07324 -0.371737 0.319943 -0.0356139
128 1 10.021 9.9457 9.85243 -0.15543 2.19214 -4.2324 0.219974 -4.09446 -0.337815 -0.510851 0.678431
