ITEM: TIMESTEP
14250
ITEM: NUMBER OF ATOMS
128
ITEM: BOX BOUNDS pp pp pp
9.6507804324059698e-02 1.1367492195675723e+01
7.4185540921871684e-02 1.1389814459077957e+01
8.2649382438177155e-02 1.1381350617561704e+01
ITEM: ATOMS id type x y z vx vy vz c_csym c_peratom fx fy fz
2 1 1.50023 1.49021 1.52835 -2.35685 2.0587 0.979208 0.106363 -4.04301 0.284581 0.19376 -0.278782
11 1 2.93477 2.87072 0.159573 2.79771 0.113309 -0.0985118 0.186716 -4.10516 -0.54385 0.394884 -0.204474
41 1 0.0380465 2.93056 2.82929 0.593599 2.28771 -2.72516 0.294363 -4.13851 0.186394 -0.316919 0.51365
43 1 2.88164 2.90891 2.82518 -1.54889 2.32235 1.66684 0.265711 -4.07875 0.535655 -0.608469 0.750444
4 1 4.37879 1.42163 1.54028 0.55049 0.919681 5.4821 0.292546 -4.09268 -0.37096 0.812405 -0.671847
6 1 7.02038 1.49831 1.39703 1.35295 0.852781 -1.19978 0.271621 -4.08196 0.936616 -0.235606 0.286507
37 1 5.67435 0.0454789 2.86587 -0.847943 1.48718 2.53944 0.140143 -4.07903 0.687581 -0.498084 0.390392
45 1 5.70739 2.92137 2.9557 0.119222 1.4254 -1.60059 0.1558 -4.04697 0.266507 -0.0660042 -0.559329
9 1 11.3106 2.97007 0.114852 1.1483 -1.43928 -4.28446 0.136941 -4.14979 0.783092 -0.442014 -0.125273
8 1 9.95936 1.41652 1.46679 -6.02454 -3.7919 0.372281 0.174392 -4.06677 -0.430818 0.34091 -0.357201
15 1 8.57543 2.95762 0.0497111 -2.94178 1.02933 2.46908 0.139954 -4.12602 -0.187012 -0.610862 0.39213
47 1 8.63076 2.91175 2.84116 -3.1314 -2.17535 -2.00732 0.255851 -4.0262 -0.739283 -0.67423 0.48868
10 1 1.52382 4.34439 1.60967 4.52175 1.75772 -2.27849 0.198988 -4.12404 -0.509336 0.219465 -0.922983
17 1 0.0520744 5.67506 0.162313 -0.158003 -3.21151 1.88173 0.238106 -4.07863 0.158634 0.252536 -0.335509
18 1 1.3998 7.24091 1.45046 4.31641 1.3271 -3.38413 0.31834 -4.12949 0.830018 -0.228995 0.507832
49 1 0.0987769 5.78797 2.91947 -2.02505 3.93818 0.0187564 0.110676 -4.15182 0.0458399 -0.228524 0.113517
51 1 2.89207 5.72442 2.93416 -0.425224 -0.837495 0.771714 0.0644351 -4.03666 -0.351055 0.312348 0.165139
12 1 4.21104 4.34566 1.56951 -0.802407 -1.32854 -1.63518 0.292648 -4.14564 1.08357 -0.0371538 -0.658026
14 1 7.20385 4.25629 1.50359 2.76172 -4.6731 -0.829554 0.184317 -4.14918 -0.203022 0.318379 -0.0205706
20 1 4.28157 7.08308 1.60933 3.57024 -1.15511 1.60498 0.400211 -4.08557 0.10222 0.945955 -0.703086
21 1 5.76509 5.709 0.0861372 -7.10302 -1.62303 1.08512 0.034595 -4.11696 -0.285915 0.187338 0.0939885
22 1 7.21838 6.99175 1.48934 0.743444 2.19236 -0.948311 0.388505 -4.03674 -0.06171 0.827601 -0.0868787
53 1 5.75762 5.71193 2.81283 0.610069 2.64506 0.0921062 0.286743 -4.0616 0.110373 -0.0378947 0.469148
16 1 9.94341 4.28529 1.51054 -2.26865 -1.95859 2.83931 0.104582 -4.08494 -0.22308 1.0396 0.0294485
23 1 8.55166 5.73289 0.0337281 0.530179 0.992415 1.9446 0.140586 -4.0975 0.536696 -0.584709 1.1422
24 1 9.92354 7.11433 1.51334 0.337204 1.5976 4.39527 0.0781918 -4.09572 -0.00753772 0.182495 -0.14575
55 1 8.51259 5.66573 3.04836 3.23109 -0.183338 -1.8251 0.368981 -4.06053 1.07076 0.872843 -1.22597
1 1 0.151612 11.3583 0.115264 -0.789128 2.52618 -2.72629 0.158006 -4.12658 -0.457298 0.380829 -0.429863
3 1 2.8764 11.4997 0.010593 2.97495 -0.57544 -0.598251 0.295772 -4.12275 -0.0278808 -1.00309 0.957396
35 1 2.98043 11.3752 2.98769 -1.64817 5.55528 0.941112 0.210232 -4.09948 -0.285164 -0.224025 -0.645097
26 1 1.45441 9.90807 1.4949 1.25424 -0.165153 0.525976 0.277688 -4.04734 0.38242 0.577359 -0.085949
27 1 2.923 8.62483 0.102586 1.31436 -0.837964 2.35806 0.165078 -4.02405 0.0704747 -0.281218 -0.228506
59 1 2.95522 8.70056 2.91452 -0.0748547 -2.03912 -0.306813 0.461439 -4.11274 -0.103959 -0.818963 -0.0386917
28 1 4.37093 9.96478 1.37937 0.472616 1.23086 2.53357 0.242549 -4.02536 -0.359405 0.229899 0.649796
29 1 5.82182 8.56434 0.103189 -1.51606 -1.36456 1.46912 0.187696 -4.12552 -0.313 -0.979071 -0.57013
30 1 7.18229 9.90562 1.43128 3.59655 2.62296 0.717734 0.0603917 -4.07953 -0.15487 0.743963 0.424612
61 1 5.83276 8.52471 2.86684 -2.21121 -4.45157 -0.921502 0.238428 -4.10562 -0.347538 0.0767142 -0.194126
33 1 11.3862 11.4222 2.79157 -0.715077 -4.21871 2.00132 0.356861 -4.04786 -0.255541 -0.41161 1.11651
39 1 8.48107 11.3591 2.79788 -0.508403 0.168864 3.59675 0.284414 -3.94898 -0.350652 1.02872 1.20086
57 1 11.3813 8.54392 2.97782 0.97417 1.33331 4.06802 0.164534 -4.13857 -0.282913 0.358181 -0.266979
32 1 9.83053 9.98577 1.56211 -2.13957 -1.90073 -1.40481 0.547868 -4.06625 1.40321 -0.552985 -0.877668
63 1 8.54971 8.50754 2.87335 -2.36688 -2.87166 0.573166 0.109725 -4.09997 -0.0982541 0.118488 0.659228
34 1 1.48854 1.59456 4.29579 -1.61621 -1.78339 -0.000820404 5.40371 -4.11315 -0.262485 -0.907926 0.357916
66 1 1.40096 1.55023 7.05829 -0.965259 0.459685 0.00528874 0.401789 -4.16405 0.707178 -0.753607 0.451183
75 1 2.89214 2.87302 5.7132 -1.37991 0.131526 4.85141 0.067837 -4.00282 0.310023 0.396739 -0.0330471
36 1 4.33436 1.54436 4.32101 -1.12068 0.877595 -1.76993 0.199372 -4.16684 -0.159065 -0.406639 -0.0829636
38 1 7.04678 1.49371 4.32247 -0.801757 2.29678 -1.17793 0.231863 -4.09455 0.974424 -0.148215 -0.111294
68 1 4.25139 1.45629 7.03767 2.21182 -0.341979 -0.00902396 0.295936 -4.04937 0.194954 0.281431 1.17442
70 1 7.18576 1.45835 7.23193 0.316913 1.4213 1.48802 0.147621 -4.08667 -0.214165 0.146985 -0.524649
77 1 5.6792 2.79549 5.80519 1.08484 -2.76708 -0.624545 0.377421 -4.03621 0.856291 0.576134 -0.469644
73 1 11.3343 2.9561 5.75564 2.27718 4.69191 0.971739 0.117003 -4.01948 0.14451 -0.148138 -0.535813
40 1 9.91194 1.53585 4.4038 2.47578 0.903565 -0.847926 0.35011 -4.11286 0.564016 -0.674563 -1.10201
72 1 10.0077 1.45565 7.09976 -3.70743 0.595688 -0.793842 0.180224 -4.19382 -0.590444 0.460925 0.174435
79 1 8.59142 2.93773 5.71369 -3.05506 -1.16432 -1.68516 0.116729 -4.01609 -0.653107 -0.0566732 0.333534
42 1 1.50286 4.26326 4.28893 1.34628 -1.39804 -3.72111 0.160977 -4.16939 0.110558 0.276497 0.374032
50 1 1.62762 7.19619 4.31016 2.20947 2.80418 -0.905883 0.274737 -4.06154 -0.219139 -0.309898 -0.565074
74 1 1.47241 4.27319 7.16774 0.305458 -0.0108743 0.258636 0.138153 -4.12556 0.314517 -0.0303335 -0.0919405
82 1 1.45642 7.10822 7.21368 -1.42611 1.49988 2.45978 0.35905 -3.98584 0.19371 0.3695 -0.581123
83 1 2.85332 5.81332 5.79757 -3.48327 -0.655553 0.42174 0.363788 -4.04722 0.251223 -0.762442 -0.0782596
44 1 4.38872 4.33259 4.29049 2.93996 -0.822401 -2.2917 0.209334 -4.1719 -0.631831 0.0658237 0.666712
46 1 7.21007 4.29361 4.27427 1.04861 -0.466272 2.38575 0.274597 -4.08243 -1.31914 -0.709669 1.34891
52 1 4.30443 7.11016 4.34536 2.49566 2.23321 0.368277 0.157763 -4.13075 0.773317 0.0924294 -0.0644562
54 1 7.09929 7.15384 4.32891 0.201381 3.09686 -0.749495 0.185833 -4.12451 0.250221 -0.563987 -0.0637625
76 1 4.37462 4.26515 7.07707 -1.69016 4.41813 -0.12304 0.358644 -4.06097 -0.820861 0.744085 0.447427
78 1 7.08109 4.26668 7.11686 1.28092 -1.15076 4.09526 0.226741 -4.08091 0.752458 0.0221199 0.559049
84 1 4.34469 7.21553 7.12932 0.910617 1.04789 -1.6228 0.123846 -4.07895 0.0745821 -0.387457 -0.279514
85 1 5.82642 5.71185 5.83712 2.43707 1.41048 -0.799485 0.372929 -3.99844 -0.912589 0.110735 -1.19494
86 1 7.14681 7.07438 7.16904 -3.20971 0.023611 2.12887 0.165458 -4.11798 0.229478 0.782455 0.552779
81 1 11.4554 5.78561 5.67332 -0.476525 -0.829726 -2.17653 0.350749 -4.15607 -0.479282 -0.0409503 0.629357
48 1 10.0071 4.35143 4.35193 2.58577 -0.756554 2.86044 0.112645 -4.14179 -0.22503 -0.243227 -0.112638
56 1 9.98066 7.09063 4.37727 1.95731 0.773001 -0.68972 0.15761 -4.02535 -0.588067 0.316414 -0.502391
80 1 10.0399 4.29063 7.12009 1.19874 -1.75903 -1.55545 0.144353 -4.07027 -0.659463 0.45448 0.224086
87 1 8.58213 5.79294 5.81945 0.245278 1.39668 -0.676552 0.264203 -4.11761 -0.416562 -1.04497 -0.961882
88 1 9.79836 7.22309 7.12991 1.24539 -2.71238 0.671239 0.784511 -4.00509 1.84078 0.109859 0.541085
65 1 0.0578407 11.346 5.71741 -2.26608 0.776725 -3.70576 0.172713 -4.02158 0.202023 0.370273 -0.369746
67 1 3.03832 11.2673 5.75159 3.7032 -1.03922 -2.13177 4.54101 -4.0674 -0.670175 0.447152 -0.599874
58 1 1.56648 10.0105 4.33067 -1.93049 -4.17976 -0.690455 0.134695 -3.99936 -0.551094 0.181422 -0.304848
89 1 0.148339 8.5018 5.57905 -0.695832 -1.45402 -1.26103 0.604071 -4.14157 -0.278883 0.604016 1.16994
90 1 1.39629 10.0355 7.09381 -1.49087 1.85331 3.45223 0.39819 -4.03822 0.691983 -0.417444 0.290162
91 1 2.92003 8.5995 5.69455 1.66302 1.97299 1.93615 0.173509 -4.21128 -0.292667 -0.116789 0.718712
69 1 5.78093 11.3638 5.74987 3.98827 -0.930082 -0.99542 0.116455 -4.11559 -0.422856 0.253438 -0.106925
60 1 4.52176 9.85626 4.31948 0.0426088 -2.31888 0.931194 0.615655 -4.08187 -0.598623 0.393879 0.0618376
62 1 7.15349 10.0186 4.35301 -2.4323 -1.99075 0.98066 0.183049 -4.11864 0.302737 -0.127143 -0.45659
92 1 4.37929 9.95644 7.19349 0.127255 1.79013 2.73532 0.124339 -4.06022 0.0624398 -0.182151 -0.283076
93 1 5.85581 8.51772 5.77479 -2.3534 -3.21265 0.244202 0.242515 -4.09481 -0.747434 0.310059 0.159324
94 1 7.14218 9.99035 7.16834 -0.579926 2.3608 -0.606087 0.0916546 -4.13945 -0.13192 -0.162753 0.116068
71 1 8.62099 11.3348 5.77561 -0.321399 0.432118 -1.81656 0.2221 -4.02525 -0.799763 0.551868 -0.00678153
64 1 9.9424 10.0713 4.29776 0.201682 -1.81703 0.215745 0.351755 -4.08591 -0.0830266 -0.63544 -0.290705
95 1 8.50278 8.57089 5.7036 -0.152545 2.16612 1.28991 0.0780658 -4.12138 0.128063 -0.026741 -0.319048
96 1 9.92992 9.89108 7.12686 1.02179 1.31718 -0.531623 0.154229 -4.16671 0.286514 0.124039 -0.173464
98 1 1.5065 1.56612 9.88814 0.363662 1.15119 0.874398 0.243276 -4.03015 -0.38167 -0.706587 0.550589
107 1 2.86846 2.92456 8.54083 -2.07728 -0.0524007 -2.50744 0.0781615 -4.10506 0.521896 -0.00755585 -0.278641
13 1 5.72388 3.00117 11.3966 3.52856 -0.169178 2.27141 0.168612 -4.0599 -0.342564 -0.208304 -0.268445
100 1 4.227 1.56464 10.0143 0.270921 -3.9548 -0.411731 0.197269 -4.03813 0.915501 -0.366022 -0.348212
102 1 7.20277 1.53777 9.98344 0.331962 1.21923 0.919035 0.208977 -4.09007 -0.702259 -0.198561 -0.00394788
109 1 5.63197 2.9647 8.58438 2.50786 -1.50456 -0.89887 0.257317 -4.10434 0.349912 -0.477943 -0.011155
7 1 8.56491 -0.0143632 11.2646 1.86322 0.242188 -0.876306 0.309775 -4.11458 0.339979 0.728182 1.13042
105 1 11.3221 2.86169 8.63264 -4.14217 -0.633395 -2.4683 0.310192 -4.06066 -0.155039 0.885983 -0.271093
103 1 8.60746 0.0386707 8.61569 0.33456 2.44668 -0.519421 0.119436 -4.12355 0.061768 0.323296 -0.676683
104 1 9.95676 1.46025 9.95684 -0.728545 -0.636414 -0.630889 0.0548681 -4.06032 -0.154977 0.103847 0.241573
111 1 8.48059 2.92811 8.56099 0.307376 -0.629453 -2.14349 0.20264 -4.07472 1.04327 -0.0454054 -0.143762
19 1 2.85236 5.81485 11.5153 1.53668 5.56125 0.945738 0.222271 -4.02634 0.468125 -0.572727 -0.202855
106 1 1.59648 4.42447 10.0085 3.41992 -0.600309 1.01233 0.444407 -4.09778 -0.566306 -0.633834 -0.00196399
113 1 0.107562 5.66191 8.57048 -3.84689 -0.252178 2.76643 0.204583 -4.04589 0.00788939 0.383759 -0.082524
114 1 1.53156 7.14186 10.0909 0.395739 -2.9661 0.332959 0.261106 -4.17388 -0.315446 0.266101 -0.639268
115 1 2.94481 5.8039 8.53174 -0.520139 -0.746532 2.09633 0.235075 -4.12151 -0.0149509 -0.21618 -0.249934
108 1 4.22593 4.37093 10.0194 -0.673859 0.110247 -1.57372 0.170932 -4.08555 -0.00880982 0.0148291 0.0131448
110 1 7.17763 4.38372 9.92021 1.33948 0.738678 -2.28461 0.114113 -4.11933 -0.340218 -0.471764 0.163138
116 1 4.29959 7.0937 10.015 4.4941 1.31427 -1.4941 0.193383 -4.02981 -0.324207 0.526147 0.0925499
117 1 5.691 5.75396 8.58445 -0.440118 -2.74751 -0.190231 0.242057 -4.16592 0.254823 -0.205462 -0.14176
118 1 7.35979 7.07341 9.95267 -5.90428 -0.149651 -2.12981 0.820251 -3.94454 -2.12654 0.24702 -0.795682
112 1 9.88435 4.36301 10.0429 1.36689 -1.01138 -1.72314 0.209251 -4.05643 1.00122 -0.518661 -0.863181
119 1 8.65723 5.67165 8.51216 -1.50558 -2.2791 -0.735245 0.356707 -4.1156 -0.55607 0.0706875 -0.0134895
120 1 10.0538 7.1428 9.93984 0.426515 -2.33893 2.84952 0.213775 -4.17847 -0.358378 -0.258843 -0.0922734
25 1 -0.0266607 8.62115 11.3813 -2.83497 -1.29439 0.39805 0.290515 -4.0469 0.811072 -0.564646 0.581705
97 1 -0.0320796 11.3475 8.48532 -1.57332 0.275152 -1.84268 0.267255 -4.07754 1.08184 0.334919 0.561193
99 1 2.88222 11.4129 8.55369 -6.2678 -0.217886 -2.51701 0.0785995 -4.15048 -0.036839 -0.0437315 -0.299161
121 1 0.163889 8.54215 8.53431 0.191816 -1.55154 -1.17447 0.229349 -4.01992 -0.403028 0.180311 0.181117
122 1 1.47734 10.0292 9.94806 0.640061 -1.19016 -3.79902 0.0542612 -4.09398 0.138262 -0.554869 0.0357384
123 1 2.89714 8.59379 8.46691 -1.17864 0.796727 -1.98517 0.276483 -4.13005 -0.0365636 -0.280685 0.493792
5 1 5.698 11.2975 11.297 5.06179 1.26274 -2.55389 0.287729 -4.10493 0.16609 0.758227 0.0248961
101 1 5.65063 11.4023 8.56311 -3.79089 -0.85236 -3.15336 0.172533 -4.11063 0.321352 0.376611 0.15082
124 1 4.28562 9.96394 9.93833 -0.965242 -2.8336 2.31532 0.0681301 -4.06311 -0.208672 0.0729653 0.140733
125 1 5.66133 8.50837 8.6133 1.28305 1.95464 0.895793 0.37135 -4.12062 0.860111 0.186715 0.240501
126 1 7.16621 10.08 9.92168 1.09074 4.45075 -1.62963 0.38828 -4.03436 -0.977724 -1.02448 -0.325393
31 1 8.568 8.54973 11.2545 1.57664 1.42276 1.4392 0.29058 -4.1651 -0.0402639 0.366278 1.0207
127 1 8.49008 8.59047 8.60452 1.83243 -2.23574 0.308892 0.333174 -4.11165 0.433486 0.0738737 -0.236762
128 1 10.0394 9.94974 9.9523 -0.249794 -0.871682 0.871785 0.230391 -4.10651 -0.738994 0.296666 -0.479737
