ITEM: TIMESTEP
13500
ITEM: NUMBER OF ATOMS
128
ITEM: BOX BOUNDS pp pp pp
9.9613392330155648e-02 1.1364386607669605e+01
8.9168418073192868e-02 1.1374831581926680e+01
8.2649424808300745e-02 1.1381350575191581e+01
ITEM: ATOMS id type x y z vx vy vz c_csym c_peratom fx fy fz
2 1 1.52713 1.60831 1.44088 1.25333 0.578981 -0.610115 0.489229 -4.11206 0.242405 -0.996603 0.336734
11 1 2.97019 2.91122 0.0806102 -3.09849 2.77357 1.23825 0.211127 -4.06306 -0.177307 0.216632 0.107029
41 1 0.100511 2.79276 2.86648 -0.0524501 4.05155 0.927708 0.314934 -4.06955 0.198472 0.933058 0.106012
43 1 2.92833 2.94104 2.93744 2.37076 -3.41085 0.914452 0.0900668 -4.09052 0.148473 -0.372027 0.0410616
4 1 4.20236 1.44645 1.56012 -0.163052 -3.12419 0.452471 0.652484 -4.06969 0.903806 1.00597 -0.201846
6 1 7.15255 1.55733 1.43268 2.42795 3.08964 -1.47124 0.098361 -3.99432 0.48569 0.0168323 -0.132356
37 1 5.82021 0.185635 2.73705 -1.06551 -0.933749 -2.14859 0.790805 -4.02624 -0.0585276 -0.588428 1.07937
45 1 5.74479 2.98026 2.84973 0.0565973 -1.64731 0.659182 0.187183 -4.14068 -0.0231538 -0.452973 0.109077
9 1 11.3293 2.77342 0.0672645 0.702956 -0.141397 -0.221485 0.458843 -4.0509 -0.239622 0.578441 0.0895651
8 1 9.90588 1.41867 1.57406 -0.407083 2.16718 2.51874 0.242353 -4.03893 -0.00792494 0.226508 -0.396492
15 1 8.64029 2.90478 0.0401391 -0.990767 0.783887 3.64232 0.196548 -4.12845 -0.673973 0.222213 0.0720933
47 1 8.44917 2.91211 2.89626 0.248793 2.72873 0.198213 0.229621 -4.13005 0.666158 -0.0394853 -0.0908963
10 1 1.58118 4.25756 1.47644 0.0143176 2.50853 -0.317207 0.176978 -4.17938 -0.577984 0.1537 -0.144612
17 1 0.210879 5.7833 0.171764 -0.184675 -4.7494 4.59276 0.475298 -4.04813 -1.22728 -0.876515 -0.380699
18 1 1.44762 7.12051 1.5344 -1.55033 -0.584909 -1.79679 0.187498 -4.06982 1.02394 0.775369 0.616321
49 1 0.0438014 5.72181 2.85172 -1.10769 0.780311 1.79842 0.157838 -4.05848 0.441718 -0.0231731 0.361494
51 1 2.87263 5.6964 2.92873 0.195275 -2.16873 -2.64059 0.103236 -4.07636 0.461007 0.491575 -0.0204709
12 1 4.22705 4.3355 1.54156 0.256196 1.32704 -3.68966 0.258995 -4.13325 0.641474 -0.0896854 -0.153419
14 1 7.13046 4.32539 1.50277 -0.767931 -1.80096 -2.1829 0.108556 -4.06956 0.193282 0.0104044 -0.457423
20 1 4.34979 7.10297 1.59756 -1.26325 0.530737 -3.23118 0.185375 -4.06981 -0.346709 0.607439 -0.266337
21 1 5.66181 5.64901 0.175276 1.0309 -2.00739 -2.78694 0.375099 -4.11718 -0.00300256 0.465442 -0.467542
22 1 7.04546 7.24375 1.35538 -0.952902 3.32179 -1.36448 0.693329 -4.09638 1.15071 -1.21034 1.24894
53 1 5.78402 5.69713 2.95197 -2.57206 1.86727 0.802726 0.17657 -4.14421 -0.144758 0.506321 -0.606841
16 1 9.89743 4.29953 1.49395 3.10345 -1.80697 -0.0887323 0.145112 -4.06996 1.07213 -0.497627 0.371137
23 1 8.65462 5.72967 0.182986 0.112038 0.461119 0.180595 0.465183 -4.03886 -0.889179 0.273821 -0.791117
24 1 9.91519 7.23005 1.50567 2.60484 0.397023 -2.05361 0.305207 -4.12001 -0.27788 -0.477436 0.191939
55 1 8.45024 5.69168 2.93871 0.106423 1.66734 -1.53286 0.217501 -4.07909 0.650582 0.423451 -0.249708
1 1 0.0837896 11.3552 0.100612 -0.14694 -1.25651 -1.04052 0.106813 -4.1117 0.177249 0.215691 0.187839
3 1 2.96811 11.3781 0.154225 1.1041 1.46637 -1.38009 0.311654 -4.13652 -0.439905 -0.682964 -0.120269
35 1 2.77923 11.3491 2.82981 -0.917232 2.67296 -3.44592 4.94337 -4.09446 0.857725 0.0338788 0.418876
26 1 1.48227 9.88372 1.41675 0.370711 0.670994 -1.09248 0.264881 -4.04022 -0.123291 0.309745 0.226865
27 1 2.87706 8.59945 0.0401686 1.14265 -0.0586522 4.25272 0.125892 -4.08888 0.24786 -0.485115 0.531042
59 1 2.87316 8.63809 2.95919 0.851824 -4.45221 0.117635 0.227748 -4.05168 0.660422 -0.362897 -0.809917
28 1 4.39881 10.025 1.52431 -0.629091 0.101815 2.80549 0.298495 -4.07491 -0.349927 -0.491249 -0.141765
29 1 5.69983 8.56324 0.0802268 -0.189157 2.3266 -1.92779 0.0977281 -4.07414 -0.55949 0.679559 -0.748202
30 1 7.28455 9.92073 1.35369 0.383874 0.98478 -2.22644 0.743009 -4.09887 -1.30879 0.602305 0.355546
61 1 5.70664 8.55167 2.91157 -1.13861 3.0427 4.95928 0.163348 -4.02762 0.407558 0.151837 0.172546
33 1 11.4274 11.2992 2.90653 -1.76548 -1.17303 -1.72341 5.06996 -4.15713 -0.552812 0.547605 0.0985096
39 1 8.53213 11.3841 3.02208 2.77945 -4.06912 1.29698 0.313962 -4.12498 0.158795 0.0210746 -0.391958
57 1 11.3422 8.60321 2.91172 -0.725822 -2.45813 0.292153 0.133323 -4.16281 0.285628 0.00570943 0.0812979
32 1 9.90802 9.88496 1.39882 -2.28888 2.32787 -0.20348 0.2858 -4.08944 0.0489733 0.330469 0.149074
63 1 8.4861 8.63458 2.86632 5.04871 -2.30479 -2.18575 0.254967 -4.08437 0.425892 -0.542312 0.658835
34 1 1.60479 1.53992 4.33378 2.30303 4.74086 -2.13832 0.259506 -4.08009 -0.330267 -0.28573 -0.336248
66 1 1.53404 1.34476 7.12764 1.30484 -3.25303 3.45735 0.655963 -4.02775 -0.0951025 0.894258 -0.616299
75 1 2.92599 3.00309 5.70362 -3.86617 2.71567 -2.16246 0.192235 -4.15259 -0.0407319 -0.571176 0.609488
36 1 4.40204 1.56785 4.27716 -0.497543 -0.271338 0.741791 0.18469 -4.1132 -0.328131 -0.672394 -0.0863774
38 1 7.14046 1.59945 4.39232 0.00798938 -2.36601 2.36768 0.328757 -4.11822 -0.384125 -0.503573 -0.444128
68 1 4.35015 1.55716 7.21046 -0.921019 2.06822 -0.473719 0.149957 -4.11074 0.0931833 -0.536324 -0.855163
70 1 7.08881 1.44063 7.21048 0.471158 0.974291 -2.51329 0.177717 -4.15268 0.366339 0.754795 -0.325317
77 1 5.71085 2.90021 5.82042 -2.275 -0.394972 0.347625 0.110393 -4.03172 -0.112993 0.277074 -0.529202
73 1 11.4539 2.868 5.66579 -0.23204 -1.81866 1.52848 0.271183 -4.14787 0.663509 0.635832 1.41389
40 1 10.0271 1.65087 4.40096 -1.95005 -2.37823 2.89589 4.85 -4.01188 -1.49009 -1.0687 -1.47233
72 1 9.87871 1.40038 7.02298 -1.13817 2.65748 -2.19354 0.507178 -4.1234 0.26575 1.16559 0.705062
79 1 8.52505 2.93588 5.71554 2.23117 0.831103 -0.647631 0.141464 -4.06848 -0.140276 -0.21995 0.375297
42 1 1.54933 4.30851 4.2464 -0.809886 4.6974 -2.62704 0.141803 -4.10268 -0.951837 0.0166702 0.116516
50 1 1.54279 7.23604 4.30111 -3.18286 0.331877 0.507547 0.215544 -4.13515 -0.253047 -0.501844 0.407507
74 1 1.41733 4.36179 7.12134 0.617693 2.6304 0.429499 0.321887 -3.9952 0.409413 -0.2581 0.175046
82 1 1.46134 7.16404 7.09323 1.20236 -1.10636 0.600229 0.203983 -4.16313 0.2036 0.420481 0.0925511
83 1 2.83023 5.64779 5.794 0.523795 0.221774 -0.337337 0.375647 -4.11401 0.645465 0.569526 -0.613682
44 1 4.40547 4.35163 4.32544 1.46255 -2.08504 2.51245 0.156302 -4.14769 -0.422024 -0.0966955 0.0878532
46 1 7.129 4.30056 4.28908 -1.63948 3.97261 -5.62263 0.0923718 -4.12764 0.0474232 -0.150477 0.900304
52 1 4.32984 7.109 4.39408 -1.21875 -2.05529 0.731671 0.139671 -4.09728 -0.333363 0.402704 -0.523036
54 1 7.17361 7.18674 4.28108 2.61448 -0.366488 1.68391 0.173522 -4.03029 -0.228559 -0.12362 0.210442
76 1 4.34939 4.33621 7.23985 1.59027 -3.12038 1.19909 0.305241 -4.08449 0.0720966 0.213663 -0.68947
78 1 7.06052 4.27067 7.16026 -4.55579 0.291617 3.97005 0.241386 -4.06526 0.137192 0.230249 0.422527
84 1 4.2738 7.09095 7.13485 -1.32242 -4.17977 0.536737 0.190691 -4.08798 0.352606 0.42874 -0.0276689
85 1 5.78054 5.79326 5.68982 -0.753591 -0.450492 -1.13745 0.233385 -4.12425 -0.0260677 -0.358459 0.570512
86 1 7.14268 7.13854 7.23025 -1.81873 2.81249 1.94852 0.189141 -4.01393 0.294846 -0.475135 0.0804542
81 1 11.3666 5.68507 5.60946 -0.229911 -1.51573 -2.38398 0.187973 -4.10648 -0.103336 0.0816665 0.517059
48 1 9.9836 4.22598 4.34636 -1.32903 1.2064 0.836244 0.188392 -4.12107 -0.487666 0.464762 -0.407168
56 1 9.99973 7.10254 4.28203 1.10305 -0.628635 -0.48259 0.207285 -4.03317 -0.523562 0.305372 0.00993119
80 1 9.99538 4.17393 7.04657 1.59464 0.0287993 1.52952 0.350579 -4.01367 0.252557 0.814848 0.588552
87 1 8.56098 5.75047 5.81629 3.47494 -0.352344 -2.37482 0.224731 -4.10914 -0.0952223 -0.21138 -0.551566
88 1 10.0284 7.20042 7.16882 -1.58481 0.793275 2.2633 0.378668 -4.0904 -0.202002 -0.334791 -0.536181
65 1 0.0431916 11.4766 5.65506 -2.2092 -3.88446 1.83244 0.498182 -4.10897 0.686791 -1.16347 0.0416403
67 1 2.9586 11.4133 5.67971 -0.186436 -4.2456 -0.620568 0.113588 -4.0392 0.0715253 -0.00990834 0.493506
58 1 1.58983 10.0084 4.33474 1.42507 -0.970449 0.744387 0.249129 -4.09913 -0.663443 -0.455371 0.80241
89 1 0.0897525 8.53343 5.70675 -2.06407 0.790692 -0.124367 0.115719 -3.98122 -0.282448 0.0139569 -0.428704
90 1 1.42241 9.90698 7.03422 -3.69985 -1.24129 0.531366 0.505629 -4.11381 0.325712 0.607681 0.8895
91 1 3.04547 8.63295 5.74764 -2.51804 3.09301 -2.18382 0.390118 -4.03749 -0.337643 -0.448072 -0.157222
69 1 5.82047 11.4146 5.71335 -0.0568832 0.247868 2.86771 0.206536 -4.00891 -0.812885 -0.0141734 0.768869
60 1 4.36317 10.0435 4.32891 -0.855112 -0.609061 0.0192841 0.165008 -4.08857 0.074918 -0.168117 -0.249382
62 1 7.02292 9.98278 4.36463 -0.105462 -1.72698 2.63247 0.511094 -4.02957 0.185117 -0.419528 -0.736159
92 1 4.33302 9.98109 7.195 2.11188 2.65303 -1.22893 0.054843 -4.0792 0.182806 0.266489 -0.440654
93 1 5.81367 8.47393 5.87659 0.783107 -1.26128 -3.00955 0.527576 -4.13362 -0.645627 0.67776 -0.824066
94 1 7.17926 10.0208 7.14939 1.45829 2.783 -1.96847 0.172858 -4.13086 -0.286505 -0.510776 0.0679896
71 1 8.58214 11.3074 5.67629 0.403192 -2.21065 0.206341 0.432284 -4.14649 -0.486526 0.390433 -0.0724913
64 1 9.94171 9.9237 4.36697 1.51568 -4.31824 0.261 0.187153 -3.99695 0.320436 -0.0387131 -0.564493
95 1 8.4929 8.62689 5.66954 3.61847 6.235 1.42354 0.30729 -4.14273 0.250963 -0.747025 0.592091
96 1 9.99004 9.94286 7.25107 1.21836 1.34881 -2.02363 0.392743 -4.17462 0.068569 -0.112451 -0.807465
98 1 1.65014 1.44013 10.0587 0.494032 -2.49079 -0.0533235 4.47973 -4.13949 -0.991837 0.507777 -0.499676
107 1 2.8731 2.89922 8.4272 -2.62652 -0.294563 2.74047 0.577595 -4.16802 -0.187382 0.386926 0.708999
13 1 5.68964 2.91208 11.3012 -0.555067 2.18921 1.44105 5.1698 -4.11877 0.0395064 -0.329877 0.629531
100 1 4.14438 1.47267 9.9341 -3.28284 -1.18688 -2.0849 4.72073 -4.09901 1.26929 0.418249 0.350194
102 1 7.2595 1.43606 9.92544 2.44905 0.935786 -2.946 0.427603 -4.04759 -0.614411 0.348816 -0.147888
109 1 5.60895 2.91915 8.70137 -0.0686491 3.79509 -3.62311 0.516506 -4.10274 1.01705 -0.10761 -0.263177
7 1 8.59324 0.116186 11.3523 0.856429 0.697119 5.17309 0.127215 -4.07337 -0.45895 -0.165175 0.427856
105 1 11.4662 2.82219 8.52599 0.944499 0.664678 -1.03854 0.238805 -4.07571 -0.76729 -0.086183 0.249399
103 1 8.54838 0.0740316 8.44645 2.60286 1.30069 -0.592789 0.242695 -4.02692 0.424696 0.214008 1.04553
104 1 9.94695 1.41605 9.98267 1.9261 -4.40327 -1.97866 0.183248 -4.07957 0.231115 0.55905 -0.421318
111 1 8.59888 2.91293 8.57023 -1.59139 1.34199 -0.182363 0.190644 -4.04166 0.137006 0.193499 0.263133
19 1 2.98469 5.81058 11.4448 -0.585623 1.63702 -2.52398 0.352967 -4.07476 -0.718 0.0605828 -0.184907
106 1 1.49154 4.33907 10.0213 -2.34196 -0.956129 -2.76377 0.168359 -4.11788 0.499137 -0.0373549 -0.138499
113 1 0.101673 5.72869 8.48047 -0.156385 0.564529 -5.6988 0.190972 -4.10851 -0.203419 -0.131228 0.0878043
114 1 1.40242 7.13461 9.96067 0.882483 0.443786 -0.796301 0.287244 -4.10372 1.15846 -0.530556 -0.092574
115 1 2.92726 5.78272 8.50038 -2.22874 -4.4201 3.65491 0.190949 -4.08812 -0.782595 -0.439949 0.726043
108 1 4.24265 4.36017 9.98973 -1.6089 -1.6064 0.113293 0.142994 -4.09721 -0.114268 0.168959 -0.304857
110 1 7.16425 4.43318 10.0126 1.80564 3.27071 0.94626 0.361947 -4.02564 0.071236 -0.598791 -0.148817
116 1 4.26435 7.18695 10.0203 2.29242 0.254082 0.394929 0.120833 -4.04016 0.616254 -0.265726 -0.290681
117 1 5.636 5.77873 8.59501 1.27849 -1.97884 1.01691 0.117718 -4.10021 0.483726 -0.251521 -0.175603
118 1 7.09273 7.0549 9.97426 -1.03233 -1.70104 4.20085 0.21113 -4.11662 0.12331 -0.105713 0.251131
112 1 10.1714 4.36357 10.0621 0.256271 0.628598 5.02094 5.44695 -4.03578 -0.879341 -0.282133 -0.516295
119 1 8.63179 5.61039 8.56579 -1.13472 0.205404 -0.783966 0.379348 -4.08827 -0.144803 0.390846 -0.385493
120 1 9.98108 6.98284 9.95104 0.0501566 -1.0557 1.84596 0.391388 -4.16107 -0.270185 0.445635 0.329582
25 1 0.0664165 8.42577 11.3823 0.675229 -4.92565 -1.11906 0.320162 -4.12239 0.0684894 0.966757 -0.2564
97 1 0.0620277 11.4863 8.5399 -1.50938 2.42202 2.75985 0.531599 -4.0241 0.441553 -0.621728 0.0121479
99 1 2.9246 11.404 8.53892 3.43628 -2.27094 1.0999 0.214834 -4.06851 -0.348726 -1.03006 -0.350812
121 1 0.0123954 8.50631 8.7022 -1.16254 1.88403 0.379716 0.601885 -4.0123 0.670511 0.399626 -0.604091
122 1 1.49634 10.0552 9.98623 3.0782 4.05704 -0.913438 0.210525 -4.10694 -0.247694 -0.352479 -0.27811
123 1 2.88644 8.57768 8.58568 -0.975627 -4.99013 3.05201 0.037648 -4.06957 0.178082 -0.0624072 -0.0875
5 1 5.72938 11.4469 11.3139 2.69922 -1.31612 0.969074 0.2026 -4.13515 0.113072 0.0351475 0.405538
101 1 5.65653 11.3831 8.62294 3.78734 -0.33772 -1.91067 0.201516 -4.09656 0.265696 0.230549 -0.302008
124 1 4.32967 10.0635 10.0402 1.25533 -1.38582 -1.38994 0.192959 -4.07185 -0.302577 -0.694602 -0.413742
125 1 5.76512 8.56464 8.55902 -1.81426 5.37737 -1.41904 0.0868059 -4.13894 -0.695111 0.0238355 0.164338
126 1 7.17284 9.98416 9.90289 -0.728692 -1.96092 1.40466 0.0991264 -4.18278 -0.232161 -0.0366169 0.273927
31 1 8.48506 8.52273 11.1997 -3.60213 0.712152 -0.941446 0.448238 -4.04173 0.740119 -0.344179 0.394164
127 1 8.56911 8.40388 8.61024 -0.638592 -0.757754 2.57353 0.372431 -4.0993 -0.153744 0.490399 -0.380396
128 1 9.93608 9.99471 9.94147 0.67087 -0.137965 -0.667092 0.176356 -4.19604 0.0884086 -0.159583 0.239673
