ITEM: TIMESTEP
9250
ITEM: NUMBER OF ATOMS
128
ITEM: BOX BOUNDS pp pp pp
9.4043347017988665e-02 1.1369956652981745e+01
8.4128411820998394e-02 1.1379871588178839e+01
8.2649664905667775e-02 1.1381350335094213e+01
ITEM: ATOMS id type x y z vx vy vz c_csym c_peratom fx fy fz
2 1 1.49894 1.35771 1.43106 -1.16936 -3.06637 -0.17346 0.343547 -4.03204 -0.321952 0.878319 0.387626
11 1 2.79005 2.82816 0.0536248 1.23714 -3.09909 1.24602 0.381637 -4.06121 0.881215 0.504109 0.368833
41 1 -0.0376856 2.98848 2.89483 -0.582273 -0.701702 2.01697 5.02069 -4.08341 0.888934 -0.842381 -0.224497
43 1 2.97551 2.83392 2.73399 0.210627 1.52387 -1.28029 0.326746 -4.09345 -0.404892 0.328312 0.705628
4 1 4.3784 1.42013 1.42645 0.295716 -0.497093 0.14804 0.267285 -4.12445 0.193423 0.509146 -0.462388
6 1 7.17685 1.58749 1.47068 -5.34635 2.14016 -0.047121 0.216443 -4.13985 -0.228392 -0.698661 -0.0410776
37 1 5.74955 0.0872219 2.96082 -1.61025 -0.411889 -1.33819 0.0933114 -4.10941 0.124725 -0.244105 -0.56535
45 1 5.70251 2.92793 2.93153 0.905759 2.51363 -1.53671 0.1349 -4.11361 0.0673774 -0.0928666 0.145334
9 1 11.3348 2.84299 0.154328 -3.23675 4.86065 -2.28146 0.385706 -4.11473 0.250353 0.337786 0.0985342
8 1 9.84373 1.36799 1.51281 3.40032 2.15203 -0.273947 0.518129 -4.08133 0.242342 0.452179 -0.450353
15 1 8.66863 3.02223 0.0065129 -1.69101 -0.06034 1.37791 0.587505 -4.06872 -0.129905 -1.07995 1.17235
47 1 8.55949 2.92466 2.90537 1.97429 1.57485 0.738631 0.0829826 -4.12327 0.0116411 -0.0420948 0.168529
10 1 1.46789 4.37783 1.42051 -0.466926 0.950736 -0.658139 0.303064 -4.08459 0.23439 -0.343362 0.649561
17 1 0.00468667 5.75032 0.121866 3.08767 3.1634 -1.93992 0.194796 -4.10078 0.455763 0.0269031 -0.198403
18 1 1.40337 6.95766 1.63803 0.505051 -0.943267 1.07128 4.7066 -4.02047 0.542044 1.26786 -0.785666
49 1 -0.0359142 5.62907 2.96484 -2.12481 2.0866 -4.14048 0.495587 -4.08384 0.150616 0.835687 0.372907
51 1 3.00664 5.77377 2.87624 -0.778202 -0.157666 0.801427 0.426638 -4.10272 -0.241747 -0.0700432 0.41798
12 1 4.29293 4.27431 1.39273 1.80905 1.38331 3.03076 0.263515 -4.05137 0.347139 -0.153612 0.620928
14 1 7.14148 4.22757 1.50377 -0.227192 2.69917 3.55219 0.216772 -4.10187 0.336587 0.772392 -0.0220054
20 1 4.29671 7.1996 1.46169 0.903605 0.388724 1.24182 0.203006 -3.99448 0.294862 -0.0224108 0.029427
21 1 5.73009 5.74143 0.125016 -0.25518 -0.156169 -0.978769 0.137896 -4.12238 0.00716363 -0.0501719 -0.296081
22 1 7.2221 7.13303 1.48725 1.79021 1.16413 1.38177 0.125415 -4.03236 0.042551 0.0868605 0.191789
53 1 5.72412 5.73141 2.88789 -0.858161 -2.25601 0.558878 0.0749655 -4.16689 0.0794649 -0.262959 0.0406726
16 1 9.93897 4.38846 1.4901 0.0498127 3.55783 -1.18517 0.142097 -4.0688 0.000410504 -0.940245 0.238386
23 1 8.63179 5.65663 0.0904117 0.270831 1.03005 -0.935092 0.192108 -4.09629 -0.947869 0.94017 -0.63638
24 1 9.85115 7.21521 1.4689 -0.586736 -0.533678 -0.770343 0.445476 -4.10878 0.783458 -0.114557 0.499224
55 1 8.55892 5.65598 2.95352 -4.28105 2.66376 1.06543 0.134078 -4.11886 -0.0080309 0.26744 -0.149031
1 1 0.130786 11.3214 0.0424898 -1.34579 0.00538784 -1.02958 0.12451 -4.16119 0.0282102 0.332685 -0.480874
3 1 2.78534 11.2773 0.0283611 -2.55076 -1.48262 -1.31211 0.448989 -4.12673 0.632597 0.370753 0.183954
35 1 2.98014 11.4654 2.8094 0.75285 -1.42377 1.41542 0.342376 -4.0881 -0.178771 -1.19013 0.308705
26 1 1.46629 9.86766 1.50105 1.51231 -3.62845 0.52938 0.218888 -4.12127 0.20459 0.359102 0.639149
27 1 2.87772 8.49202 0.0345121 -0.463272 1.21893 -1.22077 0.154241 -4.05502 0.0504051 0.235435 0.885895
59 1 2.9851 8.62419 2.9741 0.674792 -2.7962 0.288906 4.83559 -4.07639 -0.4298 -0.593678 0.00819115
28 1 4.31439 9.99003 1.46922 2.43651 -2.07709 -0.105539 0.0875803 -4.05875 0.150192 -0.185837 -0.239145
29 1 5.81314 8.51459 0.0793766 1.31585 2.1347 -1.3352 0.175382 -4.13205 -0.638865 -0.172867 0.548138
30 1 7.19994 9.94439 1.49882 0.402413 -0.5776 2.05564 0.0934923 -4.09888 -0.508367 0.363761 -0.316575
61 1 5.77499 8.57602 2.92255 0.124776 2.47699 -1.43814 0.0470716 -4.16636 -0.280838 -0.122542 0.257188
33 1 11.3392 11.4041 2.85758 -1.21348 -1.45788 0.998098 0.0942828 -4.01036 0.010387 0.0044965 -0.232255
39 1 8.45043 11.3686 2.92909 -3.29659 -0.254333 0.531977 0.239118 -4.07103 0.367882 0.103144 -0.0492343
57 1 11.4001 8.49654 3.028 0.862986 -2.0911 1.11781 0.499068 -3.96179 -0.894192 0.431009 -1.0223
32 1 9.99488 10.0206 1.44501 -0.772745 2.38513 2.83445 0.209271 -4.15365 -0.103241 -0.565835 0.601212
63 1 8.56126 8.68397 2.93184 -0.214756 -0.805565 0.671567 0.188926 -4.06115 -0.159994 -0.507212 0.222494
34 1 1.54164 1.43008 4.21886 -0.540577 -4.68823 -1.34393 0.232351 -4.11579 -0.290383 0.35752 0.145576
66 1 1.44244 1.57051 7.07162 0.386428 2.7323 -0.20109 0.300956 -3.99301 1.13179 -0.653383 0.684098
75 1 2.95138 2.86165 5.64011 2.42215 -0.313916 0.563497 0.22042 -4.09065 -0.638852 -0.0653129 0.821474
36 1 4.3538 1.47404 4.29361 2.71442 1.4786 2.10112 0.050338 -4.11666 -0.214658 0.0357651 0.0532741
38 1 7.10745 1.4237 4.36631 -0.945459 1.65156 -0.580208 0.131309 -4.0863 0.419302 0.843749 -0.7907
68 1 4.25772 1.4131 7.2166 -0.836052 0.652101 0.931888 0.514387 -4.03973 0.621244 0.796872 -0.62471
70 1 7.21413 1.55136 7.20798 1.60902 1.90087 0.788422 0.324566 -3.95576 -1.04097 -1.43044 0.862553
77 1 5.64145 2.87247 5.76434 2.98547 -2.79825 1.5442 0.162433 -4.15545 0.857703 0.0579648 0.213181
73 1 11.4336 2.86983 5.68597 -1.20207 -1.05929 1.81081 0.206948 -4.05213 -0.371392 0.944045 -0.364948
40 1 9.92257 1.48144 4.2887 -1.49167 -2.85537 -0.410009 0.108542 -4.17321 0.0220026 -0.142792 0.282905
72 1 9.91568 1.54373 7.16176 4.26416 1.4331 0.906369 0.322604 -4.08413 0.753164 -0.452999 1.06851
79 1 8.48475 2.69442 5.78582 -1.40772 0.984686 -0.610145 0.778134 -3.92596 0.946098 2.58699 -1.31919
42 1 1.60613 4.31539 4.21169 -1.2725 4.21288 1.55926 0.380202 -4.03116 -0.407915 0.00740737 0.489198
50 1 1.39483 7.19628 4.42739 3.2032 3.52416 -0.0878606 0.512324 -4.03432 0.99399 -1.10866 -0.743993
74 1 1.52296 4.54365 7.13194 2.08994 -0.936692 -1.70228 5.00606 -4.07073 0.508778 -1.72634 -0.552625
82 1 1.50469 7.161 7.0935 0.351388 -3.75174 -3.73408 0.0894794 -4.20152 0.232593 0.301121 0.11492
83 1 2.93403 5.83378 5.6856 1.84672 0.379758 3.06451 0.188198 -4.08618 -0.129764 -0.412416 0.142949
44 1 4.27474 4.29294 4.37401 -1.21499 0.407034 3.32821 0.251664 -4.04611 0.37523 0.262194 -0.765044
46 1 7.22268 4.3076 4.36647 2.42312 -1.79033 3.27208 0.33816 -4.03492 -0.772062 -0.244485 0.0989153
52 1 4.42292 7.08835 4.36591 -1.92329 -0.0622151 -3.03038 0.315324 -3.96681 -0.403376 0.586461 -0.830653
54 1 7.22028 7.11079 4.38608 -3.02981 -5.53718 -1.56115 0.274952 -4.05189 -0.516869 0.38007 -0.952493
76 1 4.29844 4.34621 7.0438 0.630775 2.10356 3.28209 0.187836 -4.09057 0.0729604 0.346507 0.567275
78 1 7.10087 4.33787 7.26604 -1.9167 -2.21631 -0.147009 0.234627 -4.05638 0.935113 -0.454693 -1.40621
84 1 4.31833 7.14854 7.19468 0.493173 2.80848 -0.548244 0.154414 -4.16246 0.133452 0.128034 -0.416733
85 1 5.69926 5.73866 5.71254 0.128403 1.1174 0.200394 0.158212 -4.13031 0.716052 -0.438634 0.470553
86 1 7.10142 7.13079 7.25001 0.653821 1.16379 1.45604 0.228687 -4.14124 0.0864711 0.461575 -0.941032
81 1 11.3123 5.6849 5.75238 1.38925 0.901155 -1.54054 0.296387 -4.02671 -0.0580206 0.537807 -0.647755
48 1 9.93182 4.24625 4.45502 -0.874566 2.1977 1.29194 0.386181 -4.03866 -0.568319 0.30615 0.16815
56 1 9.8204 7.19746 4.37857 1.42363 2.07589 -3.60413 0.257658 -4.10426 0.668446 -0.667811 -0.256776
80 1 10.0036 4.30961 7.21381 0.143789 0.886697 -0.844216 0.128727 -4.10526 -0.656685 -0.304081 -0.383965
87 1 8.39834 5.75433 5.8409 2.06622 -0.347736 -3.34853 0.477497 -4.00286 1.25803 -0.501649 0.0217362
88 1 9.94823 7.21578 7.09451 -1.35183 -0.354742 -2.77085 0.116267 -4.1383 0.217875 -0.381329 0.317447
65 1 0.0369383 11.5177 5.8105 -1.33058 1.10306 -0.0460662 0.600543 -4.05718 -0.0291705 -0.672394 -0.505869
67 1 2.97638 11.4045 5.74719 3.95681 1.17078 2.87018 0.27573 -4.05236 -0.72517 0.221507 0.0149828
58 1 1.42967 10.1115 4.26408 4.87708 2.7511 -3.33331 0.517698 -4.18033 0.602382 -0.406338 0.392595
89 1 0.0615317 8.59736 5.71222 -2.9358 -3.23952 -2.21449 0.105101 -4.02641 -0.698415 -0.225631 -0.322816
90 1 1.4963 9.89948 6.91313 -2.43697 1.8617 -1.29751 1.01252 -4.03478 0.619843 1.01443 1.3006
91 1 2.98805 8.52001 5.56654 2.53608 2.76331 0.872613 0.673222 -4.06762 -0.307874 0.224905 0.760013
69 1 5.85939 11.4261 5.84016 -1.51387 -1.10798 -2.14855 0.41968 -4.16643 -1.01569 0.066651 -0.240093
60 1 4.33892 10.0823 4.41554 -4.0538 -1.10842 2.85913 0.411463 -4.06504 0.457497 -0.23292 -0.742982
62 1 7.16949 10.0506 4.39208 2.8988 1.85041 -1.72089 0.140394 -4.05771 -0.376666 -0.592023 -0.201648
92 1 4.36998 9.93283 7.13768 0.445043 -1.75148 1.30873 0.135413 -4.13024 -0.23336 0.220943 0.297481
93 1 5.79635 8.57947 5.68011 1.99388 -4.07735 1.4014 0.303585 -4.13023 -0.425866 -0.406898 0.217246
94 1 7.03988 9.94501 7.21245 0.738406 0.480138 2.0941 0.28022 -4.08223 0.337778 -0.11598 -0.0108983
71 1 8.54496 11.3343 5.79727 3.2005 2.62664 -1.41097 0.170962 -4.20444 -0.0238945 0.235167 0.021946
64 1 9.99464 10.0705 4.30672 -2.27061 -1.13701 -0.259295 0.288981 -4.19487 -0.0436187 -0.49759 0.101117
95 1 8.51153 8.59319 5.73196 3.00155 0.0822091 2.72658 0.102714 -4.13952 -0.1649 0.30115 0.394656
96 1 9.91511 9.98843 7.16664 -1.77335 0.256527 -0.505858 0.0850938 -4.04386 0.63705 -0.254655 -0.161959
98 1 1.53525 1.58757 9.85572 -3.19002 -0.278793 -1.50679 0.441612 -4.06802 -0.535647 -0.393438 0.651292
107 1 2.97179 3.00385 8.47316 -3.01222 7.19884 -3.27166 0.31525 -4.11942 -0.481506 -0.563919 -0.159681
13 1 5.80164 2.97794 11.3653 1.35866 -3.16085 -0.0323987 0.264873 -4.02038 -0.798371 -0.29801 -0.132793
100 1 4.26611 1.46447 9.98444 2.59738 -1.07373 -0.641508 0.144704 -4.12218 0.224311 0.305747 0.243676
102 1 7.13965 1.51513 10.1337 1.64194 -0.286292 -0.625819 0.635762 -4.07399 0.255597 -0.146731 -1.0554
109 1 5.78795 2.88037 8.5011 -0.101984 -0.114944 -1.26568 0.242653 -4.119 -0.766918 -0.163757 0.685396
7 1 8.5072 -0.0615199 11.2919 -1.71937 0.221044 -0.749254 4.71728 -4.04574 0.454909 0.929628 0.117619
105 1 11.516 2.96016 8.49051 -3.74269 -0.473613 -1.63348 0.349994 -4.04848 -0.719159 0.423577 0.121487
103 1 8.52261 -0.0659793 8.5822 0.311215 0.223233 -0.992465 5.17466 -4.12741 -0.124891 1.36852 0.199198
104 1 10.0882 1.56696 9.93816 -0.312781 -2.27342 -0.448653 0.471993 -4.02971 -0.811858 -0.63299 -0.234706
111 1 8.51203 2.92552 8.61914 -0.658806 -0.835049 3.15746 0.132905 -4.04887 0.261332 -0.138431 0.00308566
19 1 2.96745 5.69224 11.4455 0.949598 -0.987247 2.32954 0.299646 -4.07652 -0.438445 0.541401 -0.763639
106 1 1.51964 4.33557 10.0233 -3.00538 -0.624827 0.210821 0.123984 -4.17636 -0.330185 0.0142941 -0.168973
113 1 0.185818 5.81404 8.52045 2.50832 1.09642 0.915701 0.181817 -4.03067 -0.736673 0.114157 0.350496
114 1 1.44816 7.18295 10.0122 2.90622 -1.24673 -1.50506 0.163851 -4.13652 0.612499 -0.688294 -0.253288
115 1 2.90632 5.74026 8.61703 2.1736 -4.9551 -1.44569 0.167313 -4.04958 0.091463 0.201021 -0.130606
108 1 4.35069 4.24072 9.89829 2.96839 -3.4814 0.954804 0.234406 -4.07264 -0.0912152 0.406504 0.769695
110 1 7.23545 4.28719 10.0166 -1.72774 3.55003 -0.880652 0.200901 -4.13109 -0.845226 0.747854 -0.439626
116 1 4.25342 7.14819 9.97852 0.0896521 -3.30726 0.44887 0.16256 -4.11361 0.670284 0.0339927 -0.244312
117 1 5.79324 5.70918 8.55972 -3.3102 -0.52675 -0.427242 0.156325 -4.07722 -1.11042 -0.0455904 0.733394
118 1 7.10995 7.11892 9.94375 -1.04754 -4.31355 0.642486 0.132533 -4.08418 0.386223 -0.103072 0.439152
112 1 10.0307 4.33106 9.96011 2.42101 -0.560956 4.04641 0.174043 -4.1515 0.477902 0.172579 -0.748801
119 1 8.57668 5.80433 8.56465 -1.91977 0.977223 -2.23863 0.0890333 -4.09182 0.128898 -0.308492 0.312043
120 1 10.059 7.18557 9.94026 -5.084 -6.03381 1.18501 0.217342 -4.07498 -0.668924 -0.143519 0.0992457
25 1 0.125173 8.51828 11.4116 1.6954 -1.99846 0.660866 0.115675 -4.09077 -0.265383 0.349795 -0.0737979
97 1 0.122296 11.321 8.6317 -0.3045 0.113868 -1.28847 0.448347 -4.10645 0.206149 0.318331 -1.25522
99 1 2.79235 11.462 8.50863 -3.32445 1.00207 3.87015 0.474537 -4.06024 0.298326 -1.24631 0.148906
121 1 0.158917 8.58382 8.53626 1.08652 -1.96262 -1.49412 0.149159 -4.12983 -0.458644 -0.00557128 -0.163427
122 1 1.53662 9.88768 9.92954 -1.48765 1.86669 2.76345 0.140505 -4.03693 -0.368343 0.288076 0.185015
123 1 2.88573 8.61221 8.50166 1.26294 -0.3062 -0.235076 0.173845 -4.03435 -0.142591 -0.37234 0.101934
5 1 5.73239 11.3075 11.3755 0.121355 0.669704 -0.131863 0.118707 -4.02279 0.283447 0.0874793 0.175193
101 1 5.72124 11.4835 8.61775 -3.2431 -0.971611 1.20293 0.363533 -4.09384 0.182219 -0.531818 -0.140065
124 1 4.38098 9.92438 9.97917 -3.50786 1.55061 -3.76612 0.184774 -4.14778 -0.580829 0.304992 -0.18236
125 1 5.73217 8.50888 8.61959 2.13348 -3.04696 -1.46813 0.0846998 -4.07138 -0.217989 -0.113055 -0.245862
126 1 7.03838 9.89683 9.961 1.83781 3.09414 -2.60541 0.270752 -4.09804 0.35725 0.503476 -0.164132
31 1 8.56565 8.61487 11.2517 -0.174151 -0.03991 1.39511 0.324758 -4.14062 -0.25041 -0.381105 0.436566
127 1 8.47668 8.60075 8.56258 0.259105 -2.95692 -0.931376 0.0960234 -4.18948 0.518005 -0.38466 -0.0180995
128 1 10.0093 9.96065 9.93921 0.549679 2.23317 -0.123977 0.0934844 -4.04533 -0.0580089 -0.397883 0.370128
