ITEM: TIMESTEP
4250
ITEM: NUMBER OF ATOMS
128
ITEM: BOX BOUNDS pp pp pp
9.1173495204487587e-02 1.1372826504795292e+01
9.6391184300625987e-02 1.1367608815699221e+01
8.2649947373158408e-02 1.1381350052626724e+01
ITEM: ATOMS id type x y z vx vy vz c_csym c_peratom fx fy fz
2 1 1.33533 1.58234 1.50027 1.59473 -0.742463 0.350736 0.430388 -4.05921 0.748676 -0.138931 -0.147166
11 1 2.8954 2.98007 0.0992993 -1.81197 4.59377 -1.31844 0.125686 -4.06171 -0.206013 -0.38837 -0.174686
41 1 -0.0168934 2.90997 3.01294 -2.54456 0.507107 -1.92567 0.317869 -4.08698 0.306971 -0.0616656 -0.410995
43 1 2.84081 2.85797 2.92006 7.05155 -0.967477 1.15866 0.164385 -4.0751 0.50556 0.18992 -0.17222
4 1 4.40211 1.42891 1.41146 2.64662 -1.7197 3.90735 0.370312 -3.9837 -0.97142 0.579041 0.51027
6 1 7.2418 1.37248 1.37999 -0.423808 -1.70576 -5.09254 0.502175 -4.09732 -0.682937 0.492209 0.524341
37 1 5.80288 0.16151 2.90319 -0.468697 -3.51142 3.69451 0.167115 -4.12755 -0.26462 -0.155291 -0.032915
45 1 5.74815 2.81371 2.88107 2.41583 -1.14614 3.23557 0.261589 -4.07717 0.408626 0.602951 -0.534695
9 1 11.2533 2.88925 0.0477078 -1.46489 -1.21828 3.7886 0.196606 -4.01922 1.05126 0.398274 0.0978237
8 1 9.9019 1.47496 1.46061 -3.50289 1.23707 2.82656 0.0862313 -4.17171 0.474631 -0.0435421 0.16658
15 1 8.46629 2.99555 0.0627376 2.62515 7.45793 -0.857807 0.410475 -4.10455 0.604748 -0.076236 0.232493
47 1 8.51565 2.73703 2.91965 0.50564 0.666708 0.709306 0.45132 -4.02274 0.0884166 1.32012 -0.418286
10 1 1.43154 4.3003 1.49222 -0.193159 2.76358 0.0167245 0.100422 -4.1425 -0.0891359 0.0169528 0.266876
17 1 0.132085 5.80985 0.0387088 1.35569 4.35876 0.342609 0.0941997 -4.10716 -0.316587 0.0248455 0.440114
18 1 1.54776 7.23775 1.58692 1.31576 1.36768 -0.734396 0.298852 -4.10354 -0.246962 -0.355406 -0.258269
49 1 0.148555 5.7119 2.90821 0.175533 4.07483 1.69501 0.164041 -4.06908 -0.836445 0.171218 0.115046
51 1 2.84612 5.71444 2.9832 1.82979 -0.57527 -2.07755 0.248736 -4.04169 0.468267 -0.311953 -0.669899
12 1 4.22371 4.35939 1.54079 2.63766 -0.869474 -1.11535 0.296675 -4.06161 0.802579 -0.029656 0.09544
14 1 7.09636 4.36852 1.44808 -2.03787 0.205045 -1.45219 0.218112 -4.02312 0.504793 -0.368262 0.285781
20 1 4.26439 7.08014 1.47123 -0.268894 2.28528 -2.42095 0.361334 -4.13052 0.632911 0.464863 0.331522
21 1 5.71224 5.72119 0.0294894 0.787778 -4.28126 0.523583 0.126945 -4.06013 0.139241 -0.410832 0.21176
22 1 7.14026 7.09971 1.36937 2.13314 0.607473 -1.10981 0.504353 -4.10376 0.258321 0.669624 0.626556
53 1 5.88927 5.823 2.86918 -1.50679 -1.69445 -3.75061 0.554409 -4.00257 -0.925799 -0.599358 0.318314
16 1 9.98522 4.31417 1.44827 -2.40918 0.578714 -0.601175 0.108519 -4.08107 -0.361435 -0.00150838 0.514358
23 1 8.65572 5.77891 0.0675593 2.18489 -2.41868 0.17312 0.191444 -4.08391 -0.716531 -0.0626731 -0.518508
24 1 9.9491 7.17543 1.49499 2.09962 0.68466 -2.96678 0.0558062 -4.04209 0.236288 0.153667 0.420029
55 1 8.52309 5.75061 2.88552 -2.07812 2.88534 2.69855 0.0480214 -4.07082 0.40268 0.0434781 -0.104941
1 1 0.106496 11.3218 0.0441604 3.53661 -4.43318 1.33269 0.176092 -4.09515 0.101475 -0.184207 -0.0852718
3 1 2.86368 11.3117 0.121884 -1.3927 0.99508 -0.461026 0.330183 -4.06701 -0.225448 0.174794 -0.0215701
35 1 2.737 11.3626 2.95869 -1.06887 -0.67999 2.38343 4.77814 -4.14611 1.33236 -0.133588 -0.863535
26 1 1.40773 9.91809 1.51836 -2.71137 -0.718756 0.346946 0.265454 -4.00871 0.543602 -0.16394 -0.336283
27 1 2.98648 8.57571 0.0806097 -0.865067 -0.101767 2.62349 0.252543 -4.01385 -1.10559 0.474259 0.915688
59 1 3.00913 8.6954 2.96049 -1.21323 1.25441 2.44955 0.626449 -4.11441 -0.25345 -0.737292 -0.174509
28 1 4.46427 10.0457 1.51247 0.66833 0.963156 -0.908034 0.391823 -4.04107 -0.794977 -0.476746 -0.0171606
29 1 5.78709 8.58143 0.0727538 1.67834 0.647482 0.667503 0.254727 -4.11342 -0.768599 0.165574 0.295835
30 1 7.07226 9.85963 1.57783 0.245473 -0.312525 2.18465 0.489851 -4.11026 0.857648 1.17615 -0.609976
61 1 5.74516 8.57834 2.95298 -0.550782 -1.22709 0.213043 0.167014 -4.09919 -0.302358 -0.881797 0.0268383
33 1 11.4304 11.325 2.90728 -0.122654 4.64494 -2.19594 0.295171 -4.17921 -0.605958 0.421531 0.0572647
39 1 8.5834 11.335 2.92786 -1.74017 -0.303259 0.162529 0.109093 -4.0698 -0.661675 0.250795 -0.507758
57 1 11.3243 8.58233 3.02561 -0.0704732 -1.84787 3.25232 0.262301 -4.10577 -0.162907 -0.4378 -0.725069
32 1 9.96814 9.94396 1.47624 0.994238 -0.513758 3.09031 0.0706039 -4.12185 0.556387 0.404133 0.727716
63 1 8.49759 8.60447 3.00657 -0.940806 1.9255 -1.07278 0.238104 -4.10454 0.119268 -0.314086 -0.81945
34 1 1.49266 1.51069 4.31349 0.942225 -1.68449 1.64376 0.105755 -4.04905 -0.55356 0.285668 0.630872
66 1 1.48889 1.55154 7.13923 -2.0309 4.04154 -1.06314 0.0789159 -4.03556 0.522244 -0.476871 -0.0693772
75 1 2.95724 2.8647 5.78063 0.918741 -2.79383 -1.53001 0.119442 -4.09474 -0.285415 0.611002 -0.545856
36 1 4.30664 1.54891 4.26695 2.51744 -1.15225 -0.452169 0.200595 -4.08954 -0.19746 -0.507776 -0.0820403
38 1 7.16124 1.48843 4.34579 1.95178 2.73656 1.107 0.0742498 -4.084 0.129637 -0.280835 0.421582
68 1 4.36759 1.51719 7.09355 -0.423337 -3.09699 5.20203 0.17123 -4.10816 -0.926713 0.651155 0.831172
70 1 7.09228 1.45194 7.18833 0.601329 -3.26928 2.54144 0.254896 -4.12298 0.326319 1.04321 -0.195316
77 1 5.6976 2.88288 5.58266 1.02117 0.0116396 -1.65482 0.520795 -4.05608 0.945883 -0.20395 1.21559
73 1 11.3196 2.91 5.80556 1.81831 1.08445 -2.16659 0.114079 -4.16435 0.433395 0.425507 -0.362278
40 1 9.9992 1.44157 4.40133 2.12317 -0.797916 -0.945191 0.0943385 -4.11481 -0.181104 0.161386 -0.306163
72 1 9.95496 1.53712 7.14439 -2.28059 -3.74865 3.70573 0.132442 -4.04186 0.808771 -0.730471 0.0457696
79 1 8.60137 2.89758 5.84421 0.91789 1.21534 -0.0781435 0.271216 -4.09649 -0.797923 0.386102 -0.909265
42 1 1.48499 4.29301 4.28924 2.86296 1.31839 -2.49002 0.115656 -4.08082 0.0581991 -0.341336 0.372792
50 1 1.51489 7.07728 4.29606 2.26323 2.97308 -0.615585 0.166439 -4.08415 -0.0718617 0.758363 0.624966
74 1 1.52683 4.32694 7.23427 -0.924706 3.1916 -0.928362 0.11829 -4.12534 -0.114146 0.204872 -0.634444
82 1 1.61883 7.11469 7.08282 0.615459 1.06208 1.47858 0.191844 -4.15081 -0.732617 0.307909 -0.0303432
83 1 2.97007 5.62445 5.68898 -0.260476 3.16613 -1.11228 0.200396 -4.04502 -0.260934 0.173691 0.151
44 1 4.44828 4.33257 4.34415 -1.2284 0.227805 0.424307 0.321734 -4.08424 -1.02731 0.292004 -1.15191
46 1 7.16742 4.38069 4.26996 0.10699 0.0500145 -2.89919 0.332413 -4.08964 -0.0525713 -0.619291 0.271817
52 1 4.4141 7.03892 4.2848 1.79508 1.4917 1.40548 0.371604 -4.08013 -0.527823 0.0867537 -0.0487885
54 1 7.15872 7.19665 4.35146 1.82986 -3.01797 2.71753 0.109499 -4.1267 0.0564712 -0.550944 -0.0353827
76 1 4.39128 4.32899 7.20308 -3.47849 1.33503 -1.85387 0.15003 -4.18641 -0.12677 -0.220792 -0.345144
78 1 7.02671 4.24805 7.2284 0.385228 -1.88296 0.583153 0.53403 -4.10693 0.721071 0.101495 -0.134875
84 1 4.22807 7.05223 7.17523 2.25091 -1.73759 -3.29102 0.445934 -4.09739 1.16358 -0.0824943 -0.792081
85 1 5.81855 5.67104 5.73598 1.1366 -0.158719 -4.24592 0.173529 -4.07361 -0.656932 0.40539 -0.0692445
86 1 7.0758 7.01527 7.17275 -0.123236 -0.318767 -1.38411 0.260683 -4.03114 0.275457 0.71701 0.17386
81 1 11.3297 5.66438 5.71362 -1.26249 -0.372798 1.55448 0.119843 -4.08349 0.199955 0.327631 -0.178809
48 1 9.85571 4.28428 4.33985 -3.35889 -3.01687 1.07331 0.205114 -4.03791 0.312708 0.237783 -0.225867
56 1 9.88523 7.19591 4.35901 -0.998569 -1.62562 -3.39325 0.134881 -4.03899 0.417877 -0.773612 -0.05092
80 1 9.96407 4.37341 7.18687 -1.37717 -0.830075 -0.97912 0.125823 -4.0955 0.169619 -0.161555 0.0373189
87 1 8.48746 5.67967 5.80707 1.19243 -1.96543 -0.687215 0.188168 -4.13107 0.253495 0.316246 -0.215663
88 1 9.97625 7.09744 7.12984 0.496439 -1.10851 -3.09041 0.0851606 -4.07336 -0.0448245 0.0793309 -0.168624
65 1 0.142456 11.366 5.74706 0.935317 -0.484783 0.873425 0.114732 -4.17223 -0.148831 -0.0736243 0.171566
67 1 2.95375 11.3144 5.60565 1.1192 3.49994 0.599256 0.329752 -4.15583 -0.568383 0.802848 0.717877
58 1 1.43514 9.88872 4.34979 -0.580972 2.04904 -0.443308 0.398506 -4.06454 0.404108 0.364652 0.244808
89 1 0.0603463 8.55388 5.7152 -0.102201 -1.8175 3.37642 0.0641891 -4.06021 -0.0433227 -0.0479923 0.239517
90 1 1.62929 9.92473 7.10539 -1.78519 0.456468 -2.46801 0.233479 -4.10424 -0.368533 -0.127423 0.223072
91 1 3.08967 8.54083 5.60448 -3.1489 -0.260915 1.41829 0.668041 -4.10812 -0.725217 0.0423878 0.289302
69 1 5.68829 11.4832 5.78176 -1.61597 -1.3166 -0.04015 0.18571 -4.08242 0.553615 -0.949488 -0.79967
60 1 4.41933 10.0661 4.32337 -0.557847 1.40163 1.37805 0.433231 -4.05859 0.25569 -0.165112 -0.40603
62 1 7.09968 10.0097 4.40261 -2.68896 -0.832959 -2.02205 0.135768 -4.14852 0.190496 0.112828 0.108986
92 1 4.33567 10.0503 7.10741 -0.345996 -1.14051 -0.305928 0.182791 -4.13199 -0.0633263 -0.327586 0.0771052
93 1 5.6716 8.47886 5.70947 2.27777 -0.258006 -0.471387 0.224725 -4.14214 0.3573 0.186922 0.464926
94 1 7.08567 10.0258 7.13379 -0.416426 0.747792 3.03183 0.0973474 -4.07819 -0.0662703 -0.475061 0.0278993
71 1 8.59911 11.3707 5.86218 -4.01411 -2.19128 -1.37704 0.27011 -4.10271 -0.641378 0.394777 -0.933989
64 1 9.91967 10.0594 4.28673 0.821547 -3.27149 -3.7 0.356347 -4.08774 0.359793 -1.05445 0.966613
95 1 8.51598 8.52814 5.78638 -0.34544 2.45607 1.29471 0.0938676 -4.12248 0.171004 0.190173 -0.043125
96 1 9.9622 10.0029 7.13587 2.29472 -1.54259 1.47184 0.0648894 -4.04936 0.0360777 -0.665238 0.0111376
98 1 1.51841 1.49417 9.95746 1.00911 0.617703 0.421222 0.0676855 -4.05473 -0.191997 -0.00756558 0.180873
107 1 2.89622 3.00171 8.60709 0.0205025 -2.01559 0.625999 0.127607 -4.10833 0.0474393 -0.505846 -0.241345
13 1 5.81234 2.87387 11.335 1.12246 -0.478819 3.31621 0.263405 -4.08359 -0.868767 0.487135 0.300165
100 1 4.20479 1.57302 9.98346 -1.1478 3.90184 -0.269216 0.378272 -4.03526 0.603054 -0.640007 0.137836
102 1 7.2183 1.55969 9.99016 0.543238 4.24397 0.618866 0.248634 -4.11303 -0.212696 -0.378456 -0.500684
109 1 5.68863 2.85143 8.62582 -4.22643 -0.421099 2.2984 0.295259 -4.07662 -0.0901209 0.116225 0.0664221
7 1 8.54518 -0.0228004 11.3454 -0.684342 2.45373 -8.49733 0.299348 -4.08194 -0.103456 0.048118 0.0966575
105 1 11.4174 2.89153 8.63061 0.241302 2.05142 0.60763 0.213884 -4.13713 -0.549881 -0.130542 -0.442769
103 1 8.53373 0.162309 8.51031 -1.89296 0.635158 2.12151 0.176125 -4.15267 0.293712 -0.753053 0.565978
104 1 9.8538 1.48728 10.1091 4.7822 -1.0788 -0.770129 0.694582 -4.09423 0.57336 -0.179075 -0.901716
111 1 8.70181 2.87652 8.53097 -2.34037 -2.611 0.472041 0.614955 -4.11482 -1.0192 0.405802 0.546261
19 1 2.77755 5.70738 11.4333 1.24706 1.64402 2.17264 0.290529 -4.08785 0.349546 0.313796 -0.357383
106 1 1.4436 4.45413 9.91325 3.21123 2.74939 3.75925 0.332767 -4.12216 0.295751 -1.14286 0.695295
113 1 0.112225 5.77861 8.50607 2.55715 -0.276643 0.468262 0.0656069 -4.1277 -0.179307 -0.044122 0.0389583
114 1 1.5467 7.15852 9.8531 0.166152 1.67888 -1.86968 0.26112 -4.21431 -0.0694776 0.57437 0.455031
115 1 2.95415 5.74258 8.60677 1.17101 -5.49311 -1.72993 0.147349 -4.07195 -0.205295 -0.235719 0.0243197
108 1 4.2537 4.36854 9.97372 3.56407 -6.65717 -1.87237 0.167685 -4.12002 0.599612 -0.402159 0.515069
110 1 7.19279 4.31666 9.8531 1.75136 1.78567 -1.10535 0.364873 -4.09351 -0.0748245 0.192268 0.627683
116 1 4.28876 7.19725 10.0957 -1.71653 2.47142 -1.43888 0.37363 -4.18695 0.362643 -0.815115 -0.79918
117 1 5.70289 5.79211 8.69078 -3.58082 -3.39901 -1.36707 0.344124 -4.07686 -0.00722163 0.0549419 -0.475716
118 1 7.07103 7.23859 9.98544 -1.82681 0.373582 3.57653 0.298538 -4.04487 0.874433 -0.637198 -0.0137818
112 1 10.0186 4.31757 9.94204 0.809285 1.53607 -2.79928 0.108172 -4.12379 -0.150989 0.192534 0.14694
119 1 8.62327 5.7508 8.62218 0.0172159 -0.286598 1.23049 0.251249 -4.09457 -0.567264 0.103381 -0.462244
120 1 10.0863 7.20319 9.88047 1.38927 -0.324707 2.75612 0.285462 -4.06678 -1.07237 -0.240271 0.894164
25 1 0.122123 8.5486 11.3395 -2.24885 -1.56696 2.41983 0.0318306 -4.08611 0.0686924 0.0351243 0.0208472
97 1 0.0298768 11.3525 8.49053 -1.97409 -3.84312 -3.06781 0.163926 -4.08331 0.425632 0.500973 0.539184
99 1 2.97564 11.4487 8.49476 0.0784777 -2.1583 -5.16029 0.209803 -4.05456 -0.270591 -0.230054 0.334383
121 1 0.00405416 8.55968 8.4507 -1.59964 -3.97063 -2.6663 0.4463 -4.03381 0.925219 0.0147814 -0.311132
122 1 1.5292 9.88221 9.80518 -0.876917 -1.46397 0.532546 0.407656 -4.14007 0.0093667 0.373073 0.417755
123 1 3.05311 8.51808 8.53959 -0.910007 3.70127 1.07168 0.347708 -4.00525 -0.771241 0.141138 -0.251863
5 1 5.74508 11.3573 11.3266 -1.83363 -1.78402 -0.339071 0.212378 -4.12044 0.200875 0.0086487 -0.467731
101 1 5.75255 11.4057 8.57122 1.62034 1.82339 2.522 0.141215 -4.10566 -0.524706 -0.304311 0.695613
124 1 4.25805 9.89902 9.9633 -0.690563 -0.519152 1.92593 0.295631 -4.10729 0.640924 1.06659 -0.0787116
125 1 5.63676 8.54856 8.51645 0.357495 2.05285 0.234435 0.196843 -4.139 0.404684 -0.0457809 0.0306224
126 1 7.1329 9.93073 9.93288 -4.88135 -0.507534 -2.29865 0.118206 -4.05935 0.131059 0.0470841 -0.105781
31 1 8.60462 8.67854 11.438 -0.91819 3.74942 -1.94112 4.77029 -4.04681 -0.435064 -1.42792 -0.987844
127 1 8.50666 8.47927 8.51092 -0.467388 -1.41048 -1.45209 0.214102 -4.12768 0.281595 0.586695 -0.0769331
128 1 10.0144 9.91646 9.90439 -2.78421 0.260031 0.534321 0.15961 -4.09168 -0.308522 0.164915 -0.0170691
