ITEM: TIMESTEP
5500
ITEM: NUMBER OF ATOMS
128
ITEM: BOX BOUNDS pp pp pp
8.4680797068724445e-02 1.1379319202931015e+01
9.4924225561385356e-02 1.1369075774438411e+01
8.2649876756285753e-02 1.1381350123243596e+01
ITEM: ATOMS id type x y z vx vy vz c_csym c_peratom fx fy fz
2 1 1.50888 1.38456 1.50258 4.00981 -1.0251 1.73996 0.136576 -4.04469 -0.0937411 0.383909 -0.0194946
11 1 2.83171 2.81205 0.189254 -0.973956 0.810619 1.79384 0.363152 -4.10468 0.564278 0.608851 -0.219156
41 1 0.12653 2.86926 2.85785 0.94892 0.0670309 2.51926 0.210213 -4.17765 -0.439417 0.34134 0.432626
43 1 2.93628 2.85339 2.85934 -0.896264 -2.13216 -0.708335 0.198612 -4.11231 -0.400192 0.479488 0.439918
4 1 4.38722 1.44629 1.5787 -1.35799 0.70568 3.05656 0.181665 -4.17804 -0.378689 0.567292 -0.393352
6 1 7.1012 1.46642 1.5187 -4.27809 -1.74808 0.255604 0.15566 -4.07906 0.342652 0.548653 -0.1945
37 1 5.72714 0.115942 2.97714 -0.0374156 0.634485 0.890781 0.1108 -4.05886 0.509576 -0.613637 -0.233074
45 1 5.74015 2.8887 2.94028 -2.60675 -3.89012 0.979262 0.0667336 -4.08403 0.514749 -0.578188 -0.447486
9 1 11.4202 2.80021 0.158202 0.847822 -4.35514 -1.91613 0.31163 -4.13149 0.146473 1.0023 -0.302947
8 1 10.0073 1.48738 1.44561 3.27872 0.74568 -2.22903 0.0271594 -3.9528 -0.465258 -0.479903 0.215913
15 1 8.61668 2.9093 0.0237591 -1.89402 0.283715 2.36364 0.132529 -4.11941 -0.11301 -0.17949 0.578992
47 1 8.58791 3.04593 2.84564 1.00777 0.429729 2.52711 0.390881 -4.13843 -0.0922842 -1.32172 0.0186689
10 1 1.57407 4.39874 1.57758 1.19099 -0.0361777 0.46967 0.289112 -4.08834 -0.652859 -0.632478 -0.232219
17 1 0.15685 5.76416 0.151273 -1.82475 2.58855 -0.113795 0.0498532 -4.07621 -0.342508 -0.162722 -0.2013
18 1 1.52746 7.10579 1.54265 -1.3148 2.12673 -0.899334 0.0843992 -4.1492 -0.135696 0.286941 0.0194697
49 1 0.0927608 5.78612 2.92399 4.93946 -2.05305 2.36499 0.0395189 -4.04234 -0.221036 0.378191 -0.131413
51 1 2.98375 5.75815 2.91583 -1.67263 -0.461005 -2.50107 0.142454 -4.11773 -0.340532 0.163205 0.189163
12 1 4.34132 4.30075 1.56168 6.23515 0.492369 2.46898 0.10348 -4.15057 -0.0328568 0.0831577 -0.877534
14 1 7.04665 4.2959 1.44645 -2.47549 0.697704 2.89988 0.278231 -4.07768 0.661562 0.0609368 -0.00314314
20 1 4.37193 7.11384 1.57353 -2.90266 -0.773544 -0.206474 0.214199 -4.04029 -0.0506723 0.0289549 -0.805053
21 1 5.75821 5.76018 0.0236719 4.11908 2.44797 -2.75965 0.244263 -4.11477 -0.401041 -0.0101419 0.389453
22 1 7.19522 7.24694 1.41987 -2.97558 2.40015 -0.23678 0.443312 -4.06746 -1.1314 -1.0915 1.02579
53 1 5.80945 5.74665 2.82606 -2.15185 0.941918 2.55734 0.204109 -4.12792 -0.279568 0.0574953 0.640308
16 1 9.9771 4.41506 1.53779 -0.586075 -2.41988 0.977899 0.272664 -4.03556 0.448572 -0.253018 -0.591261
23 1 8.48945 5.72086 0.0586481 -0.947655 -2.2488 1.22868 0.179856 -4.15874 0.0985733 -0.0930565 0.38397
24 1 9.96236 7.15604 1.59932 -1.81831 -2.51464 -0.574811 0.284059 -4.19806 0.0485466 -0.297655 -1.10465
55 1 8.48277 5.66778 2.86017 -0.215757 1.68968 0.681553 0.333872 -4.13178 0.0037309 0.580929 0.064798
1 1 0.210969 11.2753 0.0905389 -0.619038 1.43459 0.932648 0.211052 -4.12817 -1.10172 1.17859 0.402587
3 1 2.91418 11.3554 0.108377 0.282118 1.98617 -0.133492 0.083245 -4.16282 -0.043553 -0.20829 -0.130615
35 1 2.89878 11.4267 2.90509 -3.38951 -2.7868 -2.91017 0.13328 -4.1407 0.0454591 -0.507087 0.436595
26 1 1.49197 9.93509 1.5594 -1.34344 1.45127 -3.84758 0.115624 -4.08432 0.164002 0.381583 -0.172759
27 1 2.93656 8.59711 0.244724 -2.24445 -2.52074 -3.12991 5.18596 -4.11987 0.0346644 -0.12327 -0.815189
59 1 2.92512 8.52095 2.86076 -1.33461 1.43466 -2.90009 0.308089 -4.16425 -0.10075 0.0839988 0.826378
28 1 4.23566 10.0652 1.57217 -0.039757 2.16605 -2.81388 0.309891 -4.00826 0.976533 -0.724406 -0.31698
29 1 5.75744 8.59974 0.052953 0.907136 0.53333 1.04251 0.0989482 -4.09496 -0.577033 -0.328474 0.204501
30 1 7.25377 9.92622 1.38974 -1.22451 -0.114741 -0.330566 0.485232 -4.06865 -0.432076 0.185714 0.79007
61 1 5.6272 8.56419 2.9716 3.0595 -0.847477 -3.46661 0.322051 -4.06768 0.561272 0.399267 -0.63832
33 1 11.3761 11.3752 2.89103 3.5215 -1.27893 -0.0141964 0.112342 -4.16357 -0.28433 -0.214421 0.198796
39 1 8.59378 11.4211 2.8171 -0.787104 0.856907 -2.70989 0.284908 -4.01382 -0.250907 -0.406063 0.397785
57 1 11.4426 8.58748 2.89576 -0.782833 0.869965 1.40488 0.199348 -4.06923 -0.256597 -0.162244 0.67291
32 1 9.96905 9.77456 1.3062 -0.321546 4.93729 1.34758 4.6366 -4.10424 -0.568387 1.29217 1.1265
63 1 8.55012 8.49237 2.87427 2.45543 -3.735 0.860416 0.194798 -3.95255 -0.283687 0.703302 0.340084
34 1 1.58553 1.55444 4.29873 -2.58567 2.98972 -2.70223 0.193558 -4.01251 -0.272763 -0.352798 0.225746
66 1 1.42065 1.51671 7.16872 0.956648 -2.80866 -2.0199 0.230572 -4.0535 -0.240004 0.679189 -0.343672
75 1 2.907 3.04988 5.71948 -0.507052 6.48357 -0.923369 0.29054 -4.09345 -0.320215 -0.982172 -0.187505
36 1 4.33122 1.49197 4.34464 -1.41778 -1.19147 3.5202 0.0973969 -4.17431 -0.0894293 0.0327264 0.100276
38 1 7.18856 1.49611 4.36596 -0.837457 3.37932 -0.864716 0.117454 -4.12166 -0.140981 0.131447 -0.428342
68 1 4.26508 1.51286 7.16823 -3.18507 -1.44897 -1.94468 0.162428 -4.0757 0.225581 -0.00516074 -0.382021
70 1 7.1479 1.55696 7.15886 1.21037 -2.59986 0.223633 0.102998 -4.15458 0.258387 -0.0690206 -0.106562
77 1 5.67975 2.92489 5.71716 -2.96301 0.40931 -0.553721 0.0882198 -4.09889 0.340007 -0.19037 0.225903
73 1 11.3804 2.89887 5.60359 0.328019 -2.11654 1.05737 0.355151 -4.06089 -0.296679 0.0522118 0.227737
40 1 9.90635 1.48497 4.27534 -0.804809 3.96623 0.032631 0.178145 -4.00396 0.196081 0.447748 0.0227274
72 1 9.90547 1.55585 7.22393 1.00894 4.27638 -2.1346 0.411819 -4.12446 0.638024 -0.0413528 -0.305274
79 1 8.60141 2.90788 5.64947 0.907232 -0.862353 -0.244436 0.220098 -4.09903 -0.085357 0.219981 0.251508
42 1 1.44324 4.48522 4.27724 -3.11771 -2.22931 1.3992 0.518275 -4.09315 0.701614 -0.98767 0.368614
50 1 1.50525 7.17525 4.47124 -3.20943 3.36139 0.00493721 5.14529 -4.14 -0.0740971 -0.219769 -1.3236
74 1 1.43732 4.32909 7.07342 0.970128 -4.89102 2.07809 0.191127 -4.0327 0.0970994 -0.184943 0.0828506
82 1 1.52816 7.15997 7.02752 -5.82322 -2.21924 2.55605 0.255012 -4.13353 0.0572896 -0.110979 0.211585
83 1 3.01762 5.72278 5.60228 -2.5344 -1.3158 -1.07598 0.488446 -4.02222 -0.619049 -0.237914 1.35067
44 1 4.36286 4.25148 4.18296 0.251332 -0.434145 2.85281 4.76137 -4.10274 -0.15006 0.819905 0.838015
46 1 7.15742 4.27889 4.28207 -1.32578 1.85111 0.178522 0.176565 -4.11519 -0.428832 0.0582385 0.315379
52 1 4.30966 7.13069 4.3289 1.127 0.728606 1.90917 0.0712724 -4.07323 0.588924 0.499091 -0.250165
54 1 7.12583 7.14696 4.24764 2.24849 0.282339 -0.0720966 0.147702 -4.10813 0.216495 0.458723 0.522588
76 1 4.3382 4.32096 7.05119 0.765694 1.6712 -0.272985 0.185757 -3.97727 -0.145251 0.331935 0.676675
78 1 7.14713 4.31166 7.13305 -0.432024 2.99046 1.19423 0.172169 -4.10135 -0.185301 -0.337313 0.0209347
84 1 4.39098 7.27713 7.17806 2.13051 -1.81148 1.7054 0.508635 -4.05596 -0.815304 -1.23377 0.230794
85 1 5.81432 5.8202 5.75337 -1.22539 1.71762 -1.47976 5.02515 -4.07305 -1.03706 -0.89374 -0.753975
86 1 7.14237 7.12766 7.1201 2.73655 1.29467 -0.24818 0.0682944 -4.10008 0.0509952 0.287523 0.360715
81 1 11.2815 5.7619 5.71814 0.450898 4.21833 3.01939 0.156769 -4.0462 0.719367 -0.0418028 0.443927
48 1 9.93977 4.47615 4.30581 -3.48723 -2.21159 -0.754191 0.446562 -4.12337 0.294703 -0.913153 -0.276499
56 1 9.92062 7.17979 4.31037 2.02329 -2.8502 -4.52966 0.0540764 -4.1993 -0.0859777 -0.206969 -0.0250533
80 1 9.93743 4.27496 7.09666 0.448805 2.93553 -0.30355 0.221997 -4.11791 0.343563 0.18248 0.160545
87 1 8.44201 5.67362 5.68698 1.65254 -0.772021 1.89421 0.261744 -4.1134 0.553384 0.437377 0.211504
88 1 9.95635 7.12497 7.08911 2.56709 -4.17125 -2.37021 0.152644 -4.08846 -0.0285458 0.145826 0.0685537
65 1 0.0464227 11.415 5.68576 0.860508 -1.8371 -4.04734 0.145698 -4.15438 -0.248892 -0.150707 -0.0400729
67 1 2.85141 11.4386 5.87379 -1.39777 2.40518 1.17205 0.277619 -4.0982 0.0781286 -0.310721 -0.586402
58 1 1.55871 9.99452 4.36198 -2.19716 2.15622 3.73794 0.141911 -4.07571 -0.110036 0.0753885 -0.190855
89 1 0.078626 8.62519 5.67791 0.934281 -0.136758 4.49086 0.212387 -4.06757 -0.429375 -0.0794381 0.00197849
90 1 1.4151 9.92117 7.12165 5.39549 -0.900223 2.27364 0.213416 -4.12046 0.471253 -0.0256848 0.039305
91 1 2.91136 8.59601 5.73457 -0.541322 3.08541 -0.577372 0.160331 -4.07661 0.355602 0.0133036 0.227016
69 1 5.77521 11.3405 5.72385 1.45643 3.08189 1.27258 0.198429 -4.05422 -0.518772 0.355458 0.448283
60 1 4.25963 10.0342 4.40702 0.998671 -0.260406 -1.01427 0.192701 -4.11009 -0.017993 -0.161834 -0.170015
62 1 7.10395 9.9103 4.38803 0.692184 -2.7555 -1.64757 0.182446 -4.06917 0.644866 0.418706 -0.719574
92 1 4.29733 9.97366 7.31187 -0.0217199 0.806189 1.73931 4.80363 -4.14869 0.430674 0.105455 -1.42584
93 1 5.69993 8.59574 5.77629 -1.81222 2.31972 1.42073 0.0326684 -4.10477 0.198382 -0.120577 -0.556251
94 1 7.07774 9.96888 7.13599 5.00054 -0.781373 0.382623 0.151839 -4.17318 0.295518 0.1963 0.430994
71 1 8.58488 11.3934 5.73752 -0.415571 -0.681476 4.6851 0.145668 -4.1354 -0.152368 -0.396063 0.117118
64 1 9.84113 9.96955 4.24097 1.55294 1.0379 -1.90758 0.383112 -4.05774 0.601058 -0.269819 0.186959
95 1 8.53154 8.60884 5.79817 2.54104 0.490072 -3.43784 0.220248 -4.09632 -0.230898 -0.468875 -0.291299
96 1 9.95784 9.89454 7.16523 -0.977881 0.264994 1.49361 0.13594 -4.06272 0.687505 0.307077 -0.0815475
98 1 1.57576 1.48447 9.98104 1.55873 -4.01373 0.340002 0.176573 -4.09496 -0.697911 -0.0353628 -0.172061
107 1 2.91182 2.85271 8.60104 1.46222 -0.530882 -1.91409 0.15404 -4.14721 -0.146822 0.684386 -0.480736
13 1 5.74635 2.90615 11.3779 0.778998 1.96247 1.69808 0.112083 -4.08827 -0.271409 -0.354158 -0.237369
100 1 4.32692 1.48955 10.1186 1.28836 -1.68816 -3.498 0.357337 -4.08091 -0.295775 -0.368463 -0.727021
102 1 7.17439 1.42209 9.90747 6.09981 -1.16523 1.01953 0.322247 -4.11157 -0.0922145 0.458586 0.4744
109 1 5.57251 2.84438 8.58597 -0.456694 -0.91931 -3.60487 0.439076 -4.119 0.773009 0.773722 0.15088
7 1 8.5647 0.149293 11.3604 -0.802688 -0.785289 2.27167 0.355046 -4.01442 0.253194 -0.337544 -0.272887
105 1 11.363 2.99175 8.65964 0.264526 -1.71618 1.90638 0.344448 -4.02463 0.557515 0.0603975 -0.649651
103 1 8.64388 0.00381785 8.50331 1.33769 2.66797 0.880416 0.27745 -3.99999 -0.655597 0.496571 0.243653
104 1 10.0982 1.44993 9.85404 -1.56698 0.094606 4.32082 0.498567 -4.09415 -0.873285 -0.0391522 0.708289
111 1 8.47903 3.02216 8.58926 1.57067 -0.612073 -4.88346 0.491385 -4.02692 0.581816 -0.644028 0.303835
19 1 2.86377 5.74475 11.4638 -0.787002 -2.89358 -0.396205 0.0701403 -4.05557 0.678653 0.0792985 -0.253439
106 1 1.50714 4.35333 10.074 0.0139873 0.860383 -1.92216 0.167041 -4.1039 -0.0396463 -0.281824 -0.19917
113 1 0.1897 5.77675 8.52903 -0.241295 0.0254114 -2.06663 5.03883 -4.11449 -0.757215 -0.438872 0.191514
114 1 1.50474 7.13159 10.0186 -0.609837 2.10393 -0.677461 0.0904646 -4.11761 0.562547 -0.146342 0.0175831
115 1 2.76865 5.70287 8.46428 -3.51584 1.30724 -1.43412 4.75488 -4.04122 1.12137 0.143406 0.115016
108 1 4.19485 4.30941 9.98251 -0.407711 -0.63701 -0.247976 0.206438 -4.05197 0.267703 0.161708 0.428345
110 1 7.10476 4.2512 10.0258 -3.73162 -2.64572 -3.87322 0.259809 -4.01633 0.0778436 0.461903 -0.586936
116 1 4.20353 7.17263 10.0174 2.7746 -0.675069 -0.270832 0.311653 -4.01762 0.412964 -0.310504 -0.63217
117 1 5.71553 5.58197 8.57517 3.28743 -1.06256 -0.63798 0.420323 -4.07519 -0.20145 0.805037 -0.240452
118 1 7.12725 7.03097 9.87734 -1.1598 2.69375 -1.98388 0.276019 -4.0392 -0.182286 0.35625 0.190138
112 1 10.0165 4.38699 10.049 -0.814565 -2.04794 -3.11377 0.197105 -4.02038 -0.0370394 -0.233293 -0.522941
119 1 8.60453 5.76742 8.48544 -3.00932 -0.920034 -1.30914 0.23774 -4.14701 -0.192718 -0.361924 0.693313
120 1 10.0374 7.09639 10.0322 3.35096 -0.938784 2.3899 0.212029 -4.08041 -0.215432 0.0926273 -0.299207
25 1 0.188775 8.51104 11.4276 3.39118 0.664965 1.43314 0.214161 -4.08252 0.174331 -0.518455 -0.343456
97 1 0.193231 11.3186 8.57578 -1.14165 -3.07342 -2.31279 0.261082 -4.07877 -0.626603 -0.00979219 -0.409704
99 1 2.77498 11.3599 8.45494 -2.10928 2.56187 0.81875 4.80742 -4.09738 0.626413 0.345427 1.0737
121 1 0.135697 8.35723 8.5534 -0.853713 -2.35604 -2.90565 0.512118 -4.09265 -0.473389 1.16688 -0.160295
122 1 1.46344 9.92938 10.0245 -1.15574 4.22652 2.21978 0.163852 -4.10169 0.816548 -0.628087 -0.748919
123 1 2.87893 8.5864 8.53978 1.45594 -0.674373 -1.66512 0.181391 -4.05259 -0.488246 -0.321478 0.30371
5 1 5.73179 11.35 11.4757 -1.42327 -0.867768 1.81298 0.176552 -4.09069 0.222162 -0.161731 -0.422173
101 1 5.69957 11.4869 8.54906 0.926134 -0.972871 -1.71749 0.278433 -4.0276 0.0366175 -0.599584 -0.0349074
124 1 4.35227 10.0133 9.84678 2.59754 -0.635616 -0.377677 4.558 -4.08438 -0.275243 -0.118441 0.905225
125 1 5.7864 8.50159 8.60897 -0.681583 -1.00281 4.01375 0.293434 -4.08666 -0.0246887 0.158348 -0.0711273
126 1 7.11304 9.96939 9.93844 1.95074 -0.792765 0.537858 0.091994 -4.15773 0.323284 0.30797 0.142791
31 1 8.4846 8.38882 11.2565 -1.04674 1.85735 1.99057 0.707223 -4.02516 0.966541 1.20912 -0.748326
127 1 8.52167 8.55388 8.54234 -0.941125 -0.138667 -0.414657 0.0763493 -4.11243 0.332205 -0.379432 0.181357
128 1 10.0353 9.92393 9.9454 -1.83558 -1.96807 1.44425 0.0557142 -4.14741 -0.209856 -0.145157 0.200003
