ITEM: TIMESTEP
18000
ITEM: NUMBER OF ATOMS
128
ITEM: BOX BOUNDS pp pp pp
8.3907446604288616e-02 1.1380092553395420e+01
8.4659636806419414e-02 1.1379340363193448e+01
8.2649170587559176e-02 1.1381350829412323e+01
ITEM: ATOMS id type x y z vx vy vz c_csym c_peratom fx fy fz
2 1 1.58543 1.53235 1.45352 -3.41812 0.266906 -1.1392 0.30012 -4.1178 -0.188336 -0.113548 -0.146103
11 1 2.95354 3.04986 0.0466156 2.58917 -1.68342 -1.63048 0.40982 -4.05477 0.0139355 -0.439689 0.311938
41 1 0.101975 2.81789 2.92436 -2.6882 3.55995 -0.149026 0.210547 -4.11233 -0.674972 0.901192 -0.185525
43 1 2.93203 2.80348 2.98463 -1.899 0.132464 -0.933369 0.255847 -4.11795 -0.461626 0.283229 -0.266132
4 1 4.37488 1.49887 1.466 -2.55357 1.56729 -2.02285 0.0757734 -4.15764 -0.157996 -0.0570396 -0.0309779
6 1 7.09931 1.46774 1.57475 2.1706 -1.82479 -0.288329 0.296402 -4.13379 0.545667 0.566803 -1.06888
37 1 5.7749 0.100941 2.86737 1.24501 1.81752 -0.47703 0.0995833 -4.00744 -0.693102 -0.815464 0.189505
45 1 5.70239 2.88307 2.89057 3.75516 1.88726 -3.62194 0.0859756 -4.07208 0.0794746 0.0112401 0.0575813
9 1 11.4367 3.03091 0.203661 2.87129 -3.48889 1.27527 0.510002 -4.02764 -0.726643 -0.722614 -0.586733
8 1 9.94452 1.44654 1.45803 3.05566 0.182137 0.564814 0.145121 -4.06812 0.219455 0.569456 0.17023
15 1 8.49715 2.94125 0.0515354 -4.75448 2.48246 -1.59353 0.149221 -4.11351 0.505272 -0.681881 -0.109662
47 1 8.57471 2.80786 2.91707 0.673408 -1.91733 -0.247803 0.140385 -4.0815 0.242256 0.484944 -0.179164
10 1 1.48433 4.32602 1.58191 -2.47487 -2.05112 0.818787 0.174193 -4.11336 0.602062 -0.167225 0.0925618
17 1 0.188584 5.76853 0.113535 1.54376 -0.583541 1.96668 0.371903 -4.13868 -0.655856 -0.538906 -0.770414
18 1 1.48349 7.07615 1.53503 -2.04011 3.11586 -1.25016 0.215598 -4.06969 0.0642002 0.26965 -0.0388721
49 1 0.0215048 5.60569 2.93037 0.732867 1.03836 -2.21684 0.335297 -4.10544 0.316358 0.903898 0.622978
51 1 2.78228 5.77344 3.00776 3.05017 -3.96316 1.69099 4.45537 -3.98908 1.15109 -0.512099 -1.03315
12 1 4.2928 4.27356 1.56909 -0.905053 -1.74222 -1.67714 0.280975 -4.0474 -0.0852717 0.585969 -0.338667
14 1 7.16616 4.19758 1.47385 -3.30037 -0.386755 2.42606 0.226793 -4.06552 -0.392839 0.524727 0.773377
20 1 4.36057 7.18068 1.43091 -4.25272 0.184461 1.83125 0.222596 -4.05962 -0.566692 -0.857232 0.684337
21 1 5.83576 5.6626 0.113459 0.369004 0.939791 -1.21134 0.31033 -4.15963 -0.629896 0.489146 -0.192537
22 1 7.17043 7.15606 1.48626 1.06882 -3.78263 -5.50093 0.125914 -4.0539 0.125158 0.0259994 -0.15723
53 1 5.73491 5.75049 2.87215 0.648067 0.865814 -1.93286 0.141626 -4.10762 0.37242 -0.304371 0.336343
16 1 9.9731 4.35861 1.49178 1.53568 -2.22939 4.6152 0.211494 -4.08322 -0.171491 -0.626713 0.286648
23 1 8.52261 5.59356 0.134696 1.25383 1.47527 -0.146806 0.372487 -4.10793 -0.252448 0.716629 -0.521287
24 1 9.99312 6.97295 1.48093 0.949656 1.6034 2.84837 4.74181 -4.04628 -0.0553322 1.0782 -0.0499917
55 1 8.4932 5.7441 2.94395 -2.37273 -2.70294 -1.11324 0.201425 -4.15636 -0.185573 -0.302105 -0.107591
1 1 0.0499716 11.375 0.123961 0.933701 3.02063 5.06723 0.148867 -4.05878 0.301224 -0.216509 0.195324
3 1 2.98034 11.3534 0.210295 -2.46725 -1.28281 -2.58934 0.301206 -3.98616 -0.00399564 0.122275 -0.433559
35 1 2.91212 11.3271 2.95111 0.0307949 1.97075 -1.6367 0.140754 -4.12236 -0.262247 0.458779 0.176939
26 1 1.56165 9.9476 1.50808 -2.18476 -0.666458 -2.77172 0.0636487 -4.07155 -0.389891 0.65437 -0.230654
27 1 2.8895 8.51758 0.129589 -0.0638895 1.72765 0.582002 0.1422 -4.19453 -0.261669 0.173396 -0.319254
59 1 2.88665 8.54247 2.80545 -0.177942 2.10063 2.49925 0.173603 -4.14317 0.204198 -0.0613228 0.657006
28 1 4.36606 9.91055 1.52351 4.44912 -2.30259 -3.26274 0.139134 -4.16844 0.0998237 0.463398 -0.45223
29 1 5.74231 8.51218 0.136723 0.948843 4.88468 0.522078 0.148356 -4.05472 0.264885 0.754645 -0.818675
30 1 7.09343 9.95482 1.52118 0.213781 -0.328793 -1.07076 0.193334 -4.13806 0.0643169 0.0698559 -0.0808797
61 1 5.75773 8.48749 2.92671 -0.756681 -1.65102 1.0552 0.113371 -4.11991 0.3394 -0.111408 -0.0575612
33 1 11.4185 11.4111 2.89769 2.0593 1.88333 -1.6542 0.112284 -4.16874 0.253109 0.0124703 -0.11746
39 1 8.57876 11.327 2.86984 2.62277 1.78294 0.316855 0.130391 -4.11177 -0.148259 0.101785 0.0466048
57 1 11.4438 8.53842 2.8339 -2.41323 -2.43569 -0.0430321 0.239144 -4.10197 -0.568637 0.163937 0.220932
32 1 10.0024 9.96622 1.5648 -0.896689 -1.93375 0.966911 0.100248 -4.05622 0.0926908 0.0285683 -0.310765
63 1 8.56418 8.53587 2.88995 -1.49435 1.07587 2.59511 0.113371 -4.10556 -0.0014575 -0.00334231 0.145383
34 1 1.40984 1.5724 4.34902 0.197787 -2.75021 2.78261 0.401238 -3.97473 0.725989 -0.82636 -0.0350704
66 1 1.51258 1.50287 7.18239 -1.84812 1.31137 3.4703 0.214491 -4.04324 0.0151058 0.37384 0.281954
75 1 2.94666 2.79443 5.69428 4.74596 -0.634008 -2.56252 0.406177 -4.16952 -0.230276 0.328515 0.276004
36 1 4.39171 1.42628 4.28896 -2.27359 -1.9112 -1.93701 0.204213 -4.10294 -0.151329 -0.0222231 0.0891729
38 1 7.13115 1.42664 4.20594 3.72195 3.81953 -0.774261 0.342529 -4.20652 0.19831 0.42339 0.784485
68 1 4.34367 1.41033 7.16757 -1.61744 -0.78668 3.31711 0.254483 -4.02766 -0.212096 0.33552 0.360817
70 1 7.08236 1.51365 7.16134 -4.24435 2.36475 5.11756 0.13387 -4.07433 0.404827 -0.436229 0.514343
77 1 5.75726 2.77284 5.75402 -1.43559 0.00890214 1.01536 0.394162 -4.09624 -0.739604 0.910142 -0.335529
73 1 11.4209 2.94158 5.73782 -0.286828 -3.78319 -1.64113 0.150097 -4.13329 -0.609537 -0.143692 0.433236
40 1 9.93213 1.43027 4.37817 0.807448 1.33322 0.0408184 0.159307 -4.09897 0.00704308 0.372663 0.160825
72 1 9.95757 1.44082 7.23755 1.63509 -1.62036 2.11959 0.282452 -4.03324 0.178322 0.552637 -0.720773
79 1 8.44397 2.91037 5.79581 3.20983 -0.40636 -0.22474 0.202876 -4.07489 0.468976 -0.321935 0.0514768
42 1 1.49526 4.34235 4.34798 -0.647343 -0.984406 -0.97071 0.174667 -4.13512 0.110233 -0.44065 0.0284183
50 1 1.49622 7.20793 4.31968 2.65966 4.32889 -1.12691 0.184037 -4.15872 -0.570876 -0.349054 0.216094
74 1 1.59158 4.39603 7.10856 1.87142 -1.69947 -3.16455 0.323489 -4.10166 -0.509424 -0.162471 -0.245714
82 1 1.59684 7.15118 7.0599 2.00497 2.13789 2.13035 0.355173 -4.16873 -0.736788 0.00999258 0.0120949
83 1 2.97467 5.7418 5.62437 2.38806 2.4083 -0.406832 0.230097 -4.00086 -0.925731 0.273948 -0.0525147
44 1 4.30074 4.21824 4.31844 0.829472 2.03492 -1.5644 0.147921 -4.13351 0.228749 0.535568 -0.0320373
46 1 7.108 4.15767 4.32438 0.617974 -1.30527 1.1027 0.419278 -4.08375 -0.234048 0.807022 -0.122698
52 1 4.27806 7.09833 4.22386 1.94943 -0.0342632 1.32524 0.23302 -4.11218 0.199092 0.691161 0.374614
54 1 7.11996 7.16756 4.38411 -2.04709 -0.963452 -3.4071 0.144092 -4.00438 0.161943 0.666659 -1.13581
76 1 4.24718 4.46946 7.03481 -2.55513 1.69389 1.78041 0.52515 -4.05396 0.886503 -1.11401 1.02838
78 1 6.98077 4.42967 7.13257 2.15917 -2.98174 0.639076 0.420515 -4.1032 0.769493 0.082174 0.190802
84 1 4.27563 7.13756 7.14797 0.43088 -0.675744 -0.8231 0.14404 -4.17089 -0.0696263 0.147848 0.0645275
85 1 5.71031 5.81879 5.62005 -1.15097 0.823255 0.481104 0.367706 -4.10485 -0.13918 -0.658899 0.293364
86 1 7.17491 7.19245 7.15432 1.24393 -3.92311 1.70799 0.212177 -4.16275 0.169434 -0.552059 0.234737
81 1 11.3513 5.70229 5.7427 -5.7459 -2.57915 -4.05493 0.129934 -4.00116 0.0839935 0.25449 -0.424552
48 1 9.85577 4.30966 4.3681 -2.56217 -0.219254 -2.98798 0.156853 -4.07016 0.462168 -0.226502 -0.199505
56 1 9.95514 7.22188 4.29369 -5.92947 1.6543 2.45586 0.141148 -4.07541 0.102455 -0.495133 0.30468
80 1 9.8767 4.3787 7.08348 -0.946195 3.72898 0.730781 0.262896 -4.06365 0.0701112 -0.134682 0.538932
87 1 8.41642 5.78205 5.66892 -1.18662 0.163865 0.162064 0.381657 -4.04362 1.00106 -0.50599 0.386567
88 1 9.97903 7.03434 7.19083 5.40776 -0.219961 3.18325 0.458822 -4.10917 -0.0415509 0.683718 -0.444981
65 1 0.197104 11.4102 5.78545 1.87032 -1.5678 3.02373 0.45054 -4.19387 -0.699377 -0.0122649 -0.0201581
67 1 2.77469 11.4219 5.73396 -0.0938698 0.117814 2.82455 4.90353 -4.17965 1.04237 -0.234041 -0.496589
58 1 1.46226 9.94184 4.39278 -0.424396 -1.65046 1.14492 0.234962 -4.09465 0.252625 0.0177689 -0.929234
89 1 0.0583401 8.6158 5.67722 1.90953 1.26569 -1.02744 0.17506 -3.99322 -0.349078 -0.636568 0.810388
90 1 1.53758 9.8726 7.05047 -0.904244 1.78716 0.399511 0.412918 -4.09301 -0.0351787 0.239029 0.491266
91 1 2.94792 8.59141 5.66875 -4.29199 2.00273 -0.228762 0.171863 -4.05848 0.161778 -0.228821 -0.224761
69 1 5.706 11.3614 5.74991 -2.85274 -0.644607 -2.24275 0.134336 -4.08953 0.125723 0.0352978 -0.238433
60 1 4.38887 9.88883 4.205 0.681688 -2.73144 -1.70623 5.21695 -4.05802 -0.244083 0.391019 0.959788
62 1 7.17547 9.95786 4.41427 3.12286 -0.737997 -0.606187 0.189134 -4.15056 -0.545508 0.383938 -1.07031
92 1 4.33023 9.94594 7.03187 -0.677434 -1.79835 -2.80159 0.289945 -4.05766 -0.115506 0.129587 0.87848
93 1 5.74545 8.46938 5.7749 3.86759 -4.42756 0.525754 0.193166 -4.13711 -0.182275 0.178372 -0.259448
94 1 7.12202 9.95942 7.14574 1.67774 0.135624 0.42289 0.0793235 -4.14356 -0.0963442 0.0498937 0.0176585
71 1 8.44366 11.4903 5.78519 -1.70817 -3.14213 -0.792046 0.52582 -4.07512 0.483777 -0.619212 -0.134316
64 1 9.98421 10.078 4.3161 -0.997764 -1.66176 1.98457 0.145434 -4.13679 -0.0832626 -0.428036 0.152405
95 1 8.50179 8.63785 5.76441 2.87743 -2.75816 1.71276 0.188676 -4.06022 0.487609 -1.28776 -0.331819
96 1 9.89229 9.98108 7.02836 0.514792 -0.201895 1.49965 0.348378 -4.09456 0.760897 0.703881 0.205522
98 1 1.47507 1.55098 10.0557 -0.64478 0.524145 -0.748509 0.200659 -4.13351 0.189913 -0.421395 -0.577326
107 1 2.88377 3.03417 8.52985 -2.8048 1.48914 0.914532 0.25057 -4.04228 0.321154 -0.346829 0.0750874
13 1 5.76038 2.93174 11.3226 -1.09534 0.121537 -3.20615 0.146177 -4.16257 -0.357425 -0.458026 0.358697
100 1 4.24843 1.50942 9.93384 -3.25559 -1.49816 3.4864 0.293805 -4.12604 0.179338 -0.137073 -0.0221904
102 1 7.15032 1.49255 9.94004 0.403237 -1.60896 -0.286313 0.0400181 -4.07899 0.397689 0.489562 -0.138319
109 1 5.70236 2.96675 8.49808 -1.83664 -1.99501 -0.368296 0.134638 -4.1058 -0.334813 -0.453488 0.276806
7 1 8.52252 0.0726897 11.4603 1.11968 -1.4626 -6.15705 0.117587 -4.17539 0.160153 0.0280616 -0.229556
105 1 11.3316 2.9355 8.48067 -0.621455 -1.92645 2.79502 0.228259 -4.03868 0.301365 0.139197 0.209269
103 1 8.57722 0.0602805 8.53503 3.26052 -0.115912 -4.17788 0.0968032 -4.19183 -0.203243 0.0394433 0.205623
104 1 9.96701 1.45397 9.97662 -0.0544858 -0.964403 -1.14925 0.118862 -4.08537 0.436647 0.48139 -0.0697298
111 1 8.44111 2.9156 8.56263 3.05914 -0.611843 -0.00996736 0.0999307 -4.1032 0.502235 0.235164 -0.419111
19 1 2.85284 5.73639 11.2772 0.345979 0.922413 -1.03335 4.91736 -4.1498 0.0544531 0.0854132 0.782414
106 1 1.47261 4.28538 9.98158 -0.0695073 1.64588 -0.479575 0.33901 -4.0766 -0.0295311 -0.0780541 -0.0684746
113 1 0.188556 5.685 8.54521 2.23831 2.35645 -0.921434 0.412206 -4.10857 -0.529901 0.183871 -0.084099
114 1 1.36692 7.2604 9.86967 -0.860776 -0.416898 -0.139629 0.744494 -4.03616 0.754324 -0.411679 0.837249
115 1 2.82401 5.83496 8.69434 0.906569 5.95419 -2.39252 0.734796 -4.15343 0.516873 -0.555221 -0.611373
108 1 4.40716 4.39765 9.98969 -1.90222 1.96055 -3.91187 0.242186 -4.05899 -0.471423 -0.329048 -0.384796
110 1 7.05106 4.28129 9.91389 -0.401772 -1.05795 -1.68432 0.247952 -4.07972 0.712341 0.599071 -0.0647764
116 1 4.24141 7.1712 10.0429 1.35981 -1.41231 2.47915 0.185024 -4.02206 0.900314 0.0528164 -0.265191
117 1 5.66391 5.83698 8.58376 -0.24492 1.00061 1.02778 0.211473 -4.09393 0.14646 -0.233382 -0.0313825
118 1 7.17704 7.17554 9.94218 -3.08679 1.45758 2.04838 0.243281 -4.04708 0.214981 0.240146 0.666159
112 1 9.97538 4.33549 9.96162 0.5834 3.57963 3.18413 0.139241 -4.09225 0.175643 -0.0906628 0.215711
119 1 8.55955 5.76689 8.71128 3.70846 -3.05553 1.13034 0.563564 -3.97911 -0.150285 -0.666474 -1.15815
120 1 9.99356 7.17307 9.93775 0.0601524 -0.15989 0.035923 0.147704 -4.078 -0.154388 -0.108492 0.715127
25 1 0.185456 8.64131 11.3802 -2.41744 -0.731516 3.37197 0.27094 -4.12027 -0.605386 -0.35981 0.272241
97 1 0.127433 11.2997 8.45044 -0.762362 -2.91244 1.81706 0.475486 -4.10619 0.161116 0.0891607 0.512972
99 1 2.89166 11.3184 8.48177 1.48938 -0.495202 0.562538 0.240572 -4.02292 -0.0634115 0.3383 0.155882
121 1 0.0773084 8.63565 8.53942 -2.67338 0.134029 1.33367 0.28226 -4.09192 -0.0515267 0.170527 -0.508169
122 1 1.61522 10.0561 10.1049 2.91693 0.71445 -0.0594034 0.628403 -4.09916 -0.669533 -0.021712 -0.670091
123 1 2.86643 8.5947 8.61859 1.4019 3.1178 1.17826 0.261432 -4.11346 0.412718 -0.0735137 -0.387288
5 1 5.83792 11.4112 11.2413 -3.12558 2.47074 1.29756 4.7785 -4.03293 -0.752571 -0.486173 1.09097
101 1 5.8868 11.3227 8.61709 1.20288 2.17076 -1.55389 0.583154 -4.07138 -1.06385 0.134652 -0.462496
124 1 4.29734 10.0037 9.95202 -1.21499 -2.08163 -4.00755 0.204134 -4.0739 0.459559 -0.409067 0.319469
125 1 5.78216 8.49154 8.54236 -3.17541 -0.61389 1.27558 0.187325 -4.04453 -0.536279 0.890729 0.333666
126 1 7.2909 9.97978 10.0227 0.0684468 -3.73081 -1.60796 0.333893 -4.03647 -0.501529 -0.879356 -0.341292
31 1 8.61848 8.6574 11.4905 -1.51011 3.06915 0.465926 0.413551 -4.01977 0.0365141 -0.930857 -0.659859
127 1 8.64765 8.61788 8.43263 3.29994 1.40585 -1.09368 0.397574 -4.0956 -0.57536 -0.276101 0.872163
128 1 10.0351 10.0238 9.95567 0.70185 5.82727 3.07437 0.0646742 -4.09803 -0.344009 -0.0956708 0.203656
