ITEM: TIMESTEP
15250
ITEM: NUMBER OF ATOMS
128
ITEM: BOX BOUNDS pp pp pp
8.5877415673762947e-02 1.1378122584325986e+01
8.7526221601593512e-02 1.1376473778398234e+01
8.2649325944679025e-02 1.1381350674055202e+01
ITEM: ATOMS id type x y z vx vy vz c_csym c_peratom fx fy fz
2 1 1.58434 1.48752 1.48489 3.43054 -1.20312 -0.616992 0.21698 -4.1417 -0.92391 0.00439359 0.208775
11 1 2.89823 2.8916 0.0782923 -2.18051 4.68067 1.979 0.0741871 -4.07578 0.32842 0.312248 -0.260904
41 1 0.00710756 2.93585 3.01055 -3.75631 0.931538 -0.218858 0.434044 -4.14626 0.12747 -0.231539 -0.335232
43 1 2.89387 2.88072 2.90538 -3.52045 -3.31912 -0.876431 0.0527372 -4.1471 0.284033 0.141144 0.0182865
4 1 4.30172 1.5714 1.48584 3.58116 -3.92051 -1.43646 0.228888 -4.14929 0.0909732 -0.484989 0.0253727
6 1 7.11312 1.45284 1.48581 -1.23483 -0.0935204 1.43543 0.146184 -4.0519 -0.106089 0.40697 0.171877
37 1 5.61053 0.148176 2.94905 -1.2213 -0.640202 -3.57993 0.29383 -4.06106 0.832346 -0.29236 -0.246097
45 1 5.677 2.95905 3.00158 -1.24859 -2.04832 -4.18577 0.218631 -4.14108 0.805815 -0.782386 -1.00198
9 1 11.4305 2.88041 0.0975711 -0.535494 -0.979703 4.7842 0.108754 -3.95976 -0.516854 0.236329 -0.0058163
8 1 10.0038 1.62442 1.41591 -2.4631 -0.231643 -1.55441 0.628635 -4.05688 -0.0650245 -1.03445 0.568381
15 1 8.49803 2.9455 0.0880843 -2.34042 0.927318 -1.99042 0.121104 -4.06287 0.058839 -0.221912 0.254722
47 1 8.51263 2.87387 2.95154 -0.964814 -2.75146 -5.03288 0.135074 -4.11509 0.0115332 0.560512 0.00606849
10 1 1.49126 4.23526 1.48997 0.405408 0.0394295 -1.18424 0.113236 -4.13312 -0.141172 0.353304 -0.131419
17 1 0.0186394 5.78247 0.0344592 0.553037 1.14478 -0.514558 0.206136 -4.10661 0.470851 -0.201325 0.212011
18 1 1.40095 7.09449 1.56509 0.531823 -0.868682 2.82333 0.280957 -3.99899 0.169862 -0.334987 -0.35247
49 1 0.0823984 5.61229 2.92481 3.02418 -1.8344 1.819 0.214642 -4.037 -0.168595 0.431628 -0.100107
51 1 2.9611 5.68746 2.83099 -2.35805 1.05967 -4.34312 0.177837 -4.16159 -0.443339 0.275649 0.317608
12 1 4.34021 4.32314 1.43892 0.42285 -0.672442 2.26571 0.144402 -4.11965 -0.179757 0.0801859 -0.0334659
14 1 7.12526 4.47658 1.5144 0.23445 2.03187 -0.231222 0.409004 -4.05539 -0.00790508 -0.779473 0.0985905
20 1 4.3252 7.12759 1.42641 -1.44284 -4.40444 -4.17642 0.221343 -4.06737 -0.118483 -0.00281883 0.0127415
21 1 5.73144 5.83363 0.0658919 -1.88465 0.0135645 2.11001 0.129774 -4.07296 0.266453 -0.62691 -0.341559
22 1 7.1018 7.15263 1.55323 1.49693 -4.54684 -0.405391 0.211679 -4.14365 0.221125 -0.197555 0.191118
53 1 5.64676 5.67236 3.01657 0.714742 -2.45889 0.0254354 0.406576 -4.13665 0.483394 0.705438 -0.892924
16 1 9.97401 4.31267 1.47937 -1.01464 -2.78701 0.91045 0.0921779 -4.12048 -0.341857 0.21072 -0.171684
23 1 8.45765 5.72619 -0.0178843 2.52667 0.0599852 -3.46651 0.313435 -4.1163 0.321004 0.13495 0.298823
24 1 9.88721 7.11808 1.4195 0.653959 2.87779 1.21355 0.285181 -4.06785 0.415315 0.0363983 0.939682
55 1 8.61618 5.70798 2.96947 4.59299 1.41276 0.592179 0.238248 -3.97334 -0.461628 0.194848 -0.190226
1 1 0.0720102 11.2823 0.140383 0.336475 -1.63825 1.4926 0.366732 -4.10498 0.792027 0.200492 -0.133558
3 1 2.95245 11.2527 0.184116 -0.568698 0.0423368 -1.05275 0.545506 -4.05077 -0.0977489 1.46078 -1.38248
35 1 2.99147 11.3118 2.85671 2.55938 -0.0874428 0.272338 0.260481 -4.09227 -0.809568 0.246759 0.603263
26 1 1.5182 10.0025 1.52006 1.6887 3.338 -0.426783 0.206599 -4.03791 -0.338346 -0.286152 0.541042
27 1 2.75544 8.55728 0.121418 -0.121669 -2.178 0.0669949 0.641943 -4.11003 0.998978 -0.169584 -0.0837169
59 1 2.85299 8.43314 2.89567 -0.100013 1.01595 0.933953 0.244446 -4.13015 0.0569687 0.938282 -0.124779
28 1 4.35663 9.9999 1.50097 -1.27066 -2.32014 1.297 0.27795 -4.05734 0.243196 -1.29051 -0.053512
29 1 5.85613 8.51642 0.0661229 -0.413918 -2.32622 -1.2353 0.340442 -4.0412 -1.76744 0.771167 0.63338
30 1 7.06373 9.95858 1.42821 0.505702 -1.0592 -0.379526 0.325694 -4.11885 0.413369 0.164264 1.27566
61 1 5.65438 8.59347 2.87819 0.52973 -0.148196 -2.61923 0.109337 -4.03728 0.436184 -0.179403 0.393036
33 1 11.3597 11.3615 2.99941 0.28652 -0.668198 3.64285 0.286189 -4.07582 0.0858743 0.302834 -1.30879
39 1 8.63661 11.3663 2.67564 -2.27575 1.79884 0.427692 4.72842 -4.08887 -0.471042 0.0177994 1.10262
57 1 11.3727 8.6351 2.91237 -1.42144 1.55268 -1.45125 0.226829 -4.09589 -0.165527 -0.673214 -0.413502
32 1 10.017 9.90286 1.45134 0.185197 0.936411 1.65677 0.256104 -4.07849 -0.275161 0.109202 0.393068
63 1 8.53673 8.65529 2.9343 -1.71094 2.48353 -0.0639444 0.179663 -4.03253 0.0252276 -0.533236 -0.0622782
34 1 1.46787 1.45985 4.23729 4.1064 0.485396 -1.90342 0.270669 -4.02817 0.483434 0.113673 0.570325
66 1 1.51691 1.51166 7.19386 -1.36245 -0.540696 1.00484 0.0671862 -4.01222 0.605463 -0.369666 -0.480399
75 1 2.83687 2.8874 5.71268 0.0864844 -3.75338 2.20438 0.177369 -4.13376 0.641088 -0.00882163 0.419983
36 1 4.25705 1.44405 4.3906 0.425546 1.97248 -3.57576 0.216652 -4.08757 0.132914 0.143379 -0.171676
38 1 7.10854 1.37349 4.38774 1.33738 -2.57894 1.4838 4.51635 -4.02452 0.214065 0.433295 -0.295907
68 1 4.40081 1.53114 7.20881 2.1516 -0.804648 0.60993 0.268166 -4.05822 -0.599894 0.175045 -0.16567
70 1 7.17879 1.52847 7.17088 -3.04118 -3.11082 1.86742 0.187075 -4.10205 -0.428205 -0.0990408 -0.337877
77 1 5.68245 2.95559 5.60078 0.259013 1.08605 4.24041 0.430395 -4.13284 0.465796 -0.686083 1.02934
73 1 11.3091 2.96388 5.69416 -1.81941 -0.86854 0.61552 0.291225 -4.21006 0.465528 -1.21204 0.483641
40 1 9.86702 1.43198 4.26665 1.94894 1.42804 0.333416 0.414302 -4.00611 0.148273 0.0875033 0.435432
72 1 9.97385 1.41973 7.26392 2.37438 -1.21681 2.39854 0.398446 -3.99659 -0.299793 0.49777 -0.4859
79 1 8.5581 2.90442 5.7951 1.50109 -0.745476 2.07666 0.10396 -4.11378 0.362129 -0.0807528 -0.178163
42 1 1.53254 4.28373 4.31389 -2.93397 2.45753 0.744553 0.10272 -4.09335 -0.176095 0.315521 -0.145097
50 1 1.40262 7.06629 4.33649 1.25296 2.61779 -1.94638 0.343459 -4.15746 0.224794 0.249667 -0.253783
74 1 1.60206 4.34826 7.09894 2.64145 -4.42483 -0.820616 0.383903 -4.01346 -0.26336 -0.44638 0.513513
82 1 1.48499 7.21229 7.00178 -2.51304 -1.63739 -0.496779 0.53684 -4.07161 0.260311 -0.671395 1.26727
83 1 2.92317 5.7322 5.58525 0.520767 -0.530879 -0.897521 0.219985 -4.15627 0.145796 0.198206 0.635469
44 1 4.28699 4.27797 4.2757 -1.76612 1.28082 1.09047 0.107236 -4.03776 -1.22616 -0.121435 0.232181
46 1 7.09171 4.34776 4.36951 2.16137 -3.11897 -0.412301 0.127096 -4.07899 0.673868 0.113238 -0.300461
52 1 4.28221 7.18479 4.27181 -2.1704 2.1906 -0.594564 0.187328 -4.08501 0.226208 -0.216209 -0.0401884
54 1 7.08768 7.1697 4.38061 -0.362019 1.06279 -1.96802 0.109664 -4.16101 0.42731 -0.131186 -0.839114
76 1 4.37568 4.36237 7.08853 -1.65636 -2.23808 2.10756 0.208227 -4.06645 -0.628287 -0.880315 0.251458
78 1 7.16326 4.39972 7.05978 1.11193 -1.69774 -0.0372529 0.200327 -4.12142 -0.461268 -0.52876 0.494659
84 1 4.43391 7.15265 7.12152 1.74021 2.88627 0.718611 0.218646 -4.11033 -0.87817 0.00157922 0.0964997
85 1 5.54466 5.69784 5.60632 -0.946337 1.60736 0.0553521 0.757767 -4.14652 1.21314 0.374074 0.497944
86 1 7.08058 7.14084 6.94142 1.57654 -0.197968 2.28999 4.78468 -4.14125 0.0180982 0.224056 1.12044
81 1 11.44 5.60316 5.84393 -0.287333 -2.58133 1.20234 0.6001 -4.06986 -0.444817 0.921826 -0.899368
48 1 9.95483 4.40301 4.46412 0.724302 4.10314 -1.18836 0.398991 -4.05011 -0.448221 -0.202891 -0.925985
56 1 9.99292 7.12771 4.35949 -0.0296502 2.62922 1.45488 0.0591666 -4.16317 0.0609063 0.211122 -0.0634394
80 1 10.0086 4.39254 7.23635 -2.98534 -0.92572 -2.74665 0.310387 -4.08484 -0.989735 -0.279518 0.0011612
87 1 8.49895 5.75355 5.74629 -1.81469 -0.968244 -2.61564 0.0773418 -3.98043 0.702333 -0.203207 -0.619381
88 1 9.90912 7.07799 7.08634 2.33663 1.6069 0.429509 0.295932 -4.16098 0.567995 0.541164 0.327239
65 1 0.0886485 11.4526 5.79593 5.90055 0.267102 1.25101 0.367984 -4.15394 -0.0113456 -0.379952 -0.332826
67 1 2.89055 11.3789 5.80201 -0.307605 1.39452 1.58153 0.108115 -4.04033 0.653698 0.706053 -0.729193
58 1 1.49217 9.89815 4.40558 0.600494 0.845607 -1.95404 0.180508 -4.13482 0.576729 0.780058 -0.743047
89 1 0.122858 8.60994 5.72862 0.288141 4.95322 -0.687817 0.233161 -4.01101 -0.91183 -0.241456 0.111112
90 1 1.6534 9.96053 7.08121 1.27536 -0.506214 -1.54124 0.369301 -4.08279 -1.00013 -0.319827 1.24374
91 1 2.93519 8.48737 5.69883 0.978367 -1.71709 -5.31017 0.139834 -4.0758 0.227746 0.298096 -0.0947105
69 1 5.67172 11.3722 5.88332 -2.3407 -1.31768 0.255909 0.349933 -4.078 0.505906 0.0707874 -0.987191
60 1 4.27527 9.96204 4.3309 0.179257 -1.21224 3.43749 0.0621864 -4.10553 0.132683 0.115934 0.109134
62 1 7.18712 10.0386 4.35166 1.33276 3.51066 -1.97428 0.270335 -4.09002 -0.710043 -0.0113142 -0.530814
92 1 4.36294 9.95946 7.15639 -0.510164 1.48668 2.20745 0.0893395 -4.1396 -0.925688 -0.281017 0.155069
93 1 5.69206 8.58069 5.69512 2.49706 -1.94863 -1.67686 0.11826 -4.09664 0.0780389 0.272239 -0.0826431
94 1 7.15411 9.90055 7.14542 2.14911 -2.29115 1.87485 0.102751 -4.10684 -0.254891 0.684566 -0.644398
71 1 8.57105 11.3656 5.75609 -0.529567 2.11985 2.11425 0.0875112 -4.11268 0.120512 -0.030691 0.109671
64 1 9.97638 9.99702 4.2486 -2.94183 -1.12311 -1.50951 0.163247 -4.107 -0.312685 -0.0818501 0.992236
95 1 8.53098 8.6277 5.70436 -4.11988 -0.452828 -0.169246 0.177136 -4.07365 0.412129 -0.198955 0.0132998
96 1 9.97642 9.93266 7.07965 -1.13536 -2.01062 -2.62758 0.132708 -4.0454 0.388877 0.357499 0.38418
98 1 1.49517 1.47548 10.0506 1.46873 2.8965 0.0115997 0.130801 -4.18498 0.114365 -0.0396449 0.0129743
107 1 2.92978 2.90341 8.69065 0.169691 -0.396772 -0.515142 0.310385 -4.10189 -0.0300764 0.277828 -0.687455
13 1 5.77575 2.92985 11.4697 -0.131885 2.06074 3.10908 0.220963 -4.02322 0.0687125 0.215781 -0.422798
100 1 4.45222 1.56217 9.99277 -3.88764 1.626 -1.1027 0.302028 -4.08929 -0.197561 -0.421836 0.0992861
102 1 7.15695 1.4468 9.98796 1.56124 5.25868 -1.16528 0.0661269 -4.13998 -0.152732 0.287434 -0.193682
109 1 5.7942 3.00395 8.42445 -0.877815 -0.122366 -0.923572 0.400081 -4.00658 -0.174103 -0.443725 0.744922
7 1 8.57421 0.0311762 11.3808 2.01791 -0.443301 -0.0167996 0.0777044 -4.12977 0.432121 0.868169 0.373533
105 1 11.4583 2.9003 8.40439 0.845244 1.47643 -2.59631 0.835502 -4.07257 -0.759912 0.340046 1.15394
103 1 8.53701 0.00364191 8.52704 2.11462 -2.33083 0.403562 0.247267 -4.1098 0.281235 0.230051 0.229061
104 1 10.0973 1.39584 10.0221 0.962506 3.09388 -0.0966706 0.390876 -4.12486 -0.886772 0.898935 -0.486089
111 1 8.55844 2.89141 8.63691 -2.90394 2.26021 5.67618 0.109536 -4.01819 0.142526 0.161754 -0.344279
19 1 2.82799 5.67639 11.2489 -1.70949 -2.72142 2.32055 0.349646 -4.09489 0.0222196 0.492344 0.668988
106 1 1.34007 4.20915 9.97176 7.03122 2.50892 -1.83371 0.704832 -4.04462 1.05294 0.822301 -0.411791
113 1 0.107348 5.75698 8.63453 2.51717 -2.15567 -1.07495 0.347748 -4.08584 -0.343426 -0.296496 -0.91838
114 1 1.52301 7.10878 9.84672 -2.07947 5.88605 2.15983 0.29255 -3.9573 0.268435 0.694202 0.637767
115 1 2.94423 5.66219 8.46925 -0.188239 0.428928 1.57178 0.223947 -4.06037 -0.125099 0.667119 0.605064
108 1 4.34855 4.37282 9.95658 -3.98435 1.61634 0.136473 0.126972 -4.09162 0.214556 -0.429367 0.108146
110 1 7.08603 4.24536 9.96383 -2.78539 -2.86685 -0.507941 0.341484 -4.08497 -0.0561499 0.500399 0.0247039
116 1 4.37115 7.23492 9.9748 2.06314 -0.017994 3.27839 0.255745 -4.0739 -0.226591 -0.639195 0.0661376
117 1 5.75035 5.75805 8.49515 -0.764407 0.33684 -1.07995 0.0725535 -4.10111 0.152968 0.195706 0.606943
118 1 7.11452 7.27841 9.95423 0.382016 2.3779 -1.63923 0.183866 -4.03558 0.687766 -1.19109 -0.473898
112 1 9.89846 4.33188 9.97231 -1.81586 2.02092 -0.201747 0.12475 -4.11329 0.591624 -0.338602 0.0545531
119 1 8.47734 5.82536 8.61402 -2.01987 -0.945345 1.23249 0.374791 -4.08312 0.11283 -0.454144 -0.221385
120 1 9.96612 7.20704 9.96672 -3.91783 1.10206 -0.982811 0.105602 -4.08524 -0.0317662 0.00870296 0.0741886
25 1 0.124052 8.55863 11.3854 -0.720617 0.0400784 3.27577 0.111661 -4.17738 0.414614 -0.156927 -0.408638
97 1 0.202415 11.4121 8.60956 -1.47004 -0.716006 1.36011 0.180996 -4.0672 -0.442461 -0.843136 -0.718889
99 1 2.97206 11.4557 8.64104 -3.08912 -1.9167 -1.76127 0.21047 -4.1159 0.242374 -0.153932 -0.614289
121 1 0.104041 8.59573 8.51907 5.09017 0.238758 -0.422221 0.0600739 -4.02236 0.079096 -0.144526 -0.00862618
122 1 1.62574 10.0292 9.92111 -0.35318 0.33575 -0.657304 0.384806 -4.0579 -0.837264 -0.542308 0.377605
123 1 3.05852 8.57553 8.58487 1.93467 -1.11347 -1.46479 0.244112 -4.02119 -1.19558 -0.265077 -0.565997
5 1 5.74796 11.3487 11.418 -1.96828 0.627937 3.11149 0.0611539 -4.07701 -0.322941 0.375948 -0.147459
101 1 5.79615 11.265 8.55441 -0.291502 -0.419074 2.34562 0.250853 -4.11114 -0.0853958 0.539425 0.236782
124 1 4.37084 9.94033 9.95822 0.705646 -1.93963 -3.13026 0.0984031 -4.13355 -0.0235112 0.0445176 0.631909
125 1 5.76887 8.6257 8.56654 -0.811571 -1.92747 -1.26943 0.145182 -4.15436 0.278417 -0.352147 -0.267631
126 1 7.20094 9.96992 10.1123 1.32794 -0.268562 -3.35619 0.392202 -4.12964 -0.467211 -0.0249029 -1.13312
31 1 8.52848 8.59633 11.4746 0.966975 -0.0505172 1.56194 0.16969 -4.15523 0.323857 -0.523628 -0.535258
127 1 8.51709 8.57255 8.46814 -0.724668 1.0759 1.67979 0.144052 -4.0975 0.349353 -0.366921 0.599389
128 1 9.98801 9.97055 10.0243 3.24022 2.44999 0.860885 0.094406 -4.09058 -0.176414 -0.170145 -0.533619
