ITEM: TIMESTEP
15500
ITEM: NUMBER OF ATOMS
128
ITEM: BOX BOUNDS pp pp pp
9.2023240253572780e-02 1.1371976759746182e+01
1.0333045271217856e-01 1.1360669547287660e+01
8.2649311821304500e-02 1.1381350688178577e+01
ITEM: ATOMS id type x y z vx vy vz c_csym c_peratom fx fy fz
2 1 1.5818 1.57688 1.56553 -3.28406 -1.97286 -2.67888 0.559485 -4.06944 -0.97693 -0.582378 -0.146583
11 1 2.96965 2.79656 0.0317738 -3.1834 -2.3986 -0.850374 0.318083 -4.0652 -0.105936 0.46369 0.13315
41 1 0.0527459 2.89015 2.96148 -2.82595 3.09225 2.29691 0.293926 -4.08444 0.718076 0.761041 0.481521
43 1 2.90113 2.90686 2.92533 5.33409 0.895372 -1.25118 0.0684232 -4.02452 0.567165 0.260646 -0.0253912
4 1 4.27425 1.51197 1.57966 3.56262 -0.751068 1.62031 0.240678 -4.16171 0.662425 0.283408 -0.36103
6 1 7.06001 1.61025 1.61989 -0.694709 -3.57681 6.31451 0.456934 -4.03664 0.24024 -0.619185 -0.160682
37 1 5.61532 0.0845899 2.97663 -0.850065 3.93212 -1.87738 0.281927 -4.08072 0.973223 -0.0831593 -0.37284
45 1 5.71708 2.93254 3.0477 1.51816 -0.260443 -3.91276 0.246501 -4.0723 0.0409785 -0.195895 -0.621951
9 1 11.3694 2.78351 0.0779432 0.289633 3.5494 3.83927 0.454903 -4.09441 -0.18459 0.717204 -0.243621
8 1 9.97316 1.65797 1.60674 -0.463152 4.04787 -1.63714 0.655991 -3.94704 -0.086737 -1.62851 -0.837828
15 1 8.55216 2.89679 0.122122 -0.696856 -0.601897 -2.52784 0.0874779 -4.18838 -0.26566 0.0524958 -0.144769
47 1 8.59249 3.00999 2.87835 5.28202 -3.13071 -2.18717 0.267572 -4.15388 -0.606464 0.0518467 0.250717
10 1 1.5 4.21987 1.47124 -2.07798 -1.04951 0.856942 0.109138 -4.17753 0.259485 0.437249 -0.236406
17 1 0.0903843 5.73339 -0.00885147 1.84119 -0.768391 -3.14192 0.143808 -4.05489 0.116854 0.151056 0.657839
18 1 1.55191 7.16715 1.47101 -0.516462 0.655501 2.31262 0.0950589 -4.10052 -0.586761 -0.588344 0.064811
49 1 0.056821 5.70568 2.81914 2.42477 -0.57571 0.922024 0.129618 -4.00721 0.824373 0.580597 0.612096
51 1 2.87143 5.77422 2.8441 -1.91393 -2.24017 -0.781294 0.141585 -4.08465 0.573453 -0.402019 0.105928
12 1 4.32962 4.32978 1.47226 -2.76135 3.0346 -1.25456 0.0318872 -4.12478 -0.173686 -0.396242 -0.0981176
14 1 7.01085 4.38337 1.66373 0.489845 0.476159 -0.858186 0.774129 -4.01488 0.362977 -0.584247 -1.30165
20 1 4.24508 7.16294 1.36921 2.5126 -1.90919 -2.93871 0.249557 -4.10522 0.445666 -0.0823785 0.120043
21 1 5.7097 5.81309 0.0743529 0.438338 -1.56783 -2.41087 0.16051 -4.09897 0.341321 -0.522791 -0.358805
22 1 7.12299 7.18837 1.54178 -3.18047 -0.747867 -1.43019 0.183638 -4.1612 0.326836 -0.532296 -0.295873
53 1 5.6392 5.78648 2.91251 -4.0033 1.32974 3.14646 0.158431 -4.13593 -0.312088 0.173171 0.0902432
16 1 10.0172 4.39939 1.47312 1.78879 0.386221 0.959387 0.277677 -4.10455 -0.426769 -0.837447 -0.442547
23 1 8.50486 5.67845 0.0453569 0.15061 0.601465 -2.23344 0.238058 -4.15895 -0.243514 -0.182347 0.421717
24 1 9.86308 7.12239 1.45203 -0.217565 3.0839 -4.33443 0.126971 -4.16512 0.480881 0.249418 0.200023
55 1 8.4996 5.73389 2.82428 -3.93079 3.02434 0.229443 0.19915 -4.0448 0.42922 0.28666 0.537506
1 1 0.129596 11.3381 0.144561 -1.48768 1.62329 -2.19279 0.168243 -4.1221 0.0905322 0.266396 0.0282952
3 1 2.856 11.2868 0.292797 -1.3274 3.49731 -2.08687 4.70526 -4.08563 0.350329 0.563482 -1.69258
35 1 2.92125 11.302 2.82691 -3.57778 4.35096 -3.03885 0.258653 -4.11554 -0.236726 -0.0469045 0.671484
26 1 1.51233 9.84736 1.54008 1.02916 2.99524 -1.06241 0.171538 -4.05665 -0.318081 0.0643573 0.376796
27 1 2.84995 8.61412 0.0582397 3.41197 0.147911 -2.87397 0.227678 -4.1398 0.639964 -0.085627 0.0378983
59 1 3.00971 8.45349 2.90633 0.0711667 -1.96008 -1.14121 0.31697 -4.1202 -0.813018 0.787048 -0.274628
28 1 4.41505 9.94542 1.5128 1.78061 1.29487 -2.97497 0.28429 -4.09098 -0.674718 -0.105893 -0.33555
29 1 5.77004 8.52978 0.0461415 -1.25679 3.9415 -0.360955 0.147608 -4.08752 -0.791223 0.636356 0.365562
30 1 7.09376 9.91565 1.48191 1.38643 -4.71173 0.764855 0.141461 -4.11879 -0.0554744 0.390197 0.0842333
61 1 5.69555 8.50243 2.81406 4.36065 1.3344 -0.30649 0.24248 -4.09359 -0.0933571 -0.130334 1.24885
33 1 11.3263 11.2413 2.9153 0.73598 -0.572185 -0.637939 0.358242 -4.10687 0.655976 1.32649 -0.864251
39 1 8.46718 11.3788 2.84297 0.711656 0.397372 3.70512 0.296475 -4.09944 0.920925 -0.741187 -0.0416791
57 1 11.3375 8.55783 2.94046 -1.38025 2.13752 -1.76714 0.200383 -4.0831 0.224738 -0.627411 -0.403232
32 1 9.99264 9.8172 1.42764 1.02011 2.93728 1.61174 0.516775 -4.08158 -0.245861 0.372185 0.258514
63 1 8.54871 8.62149 2.9451 0.434878 -4.24664 0.534108 0.288649 -4.10282 -0.200406 -0.266942 -0.0842237
34 1 1.58154 1.49889 4.23636 -1.31318 2.28021 -1.6258 0.367713 -4.08007 -0.639195 -0.498262 0.660614
66 1 1.47855 1.55402 7.10563 -0.169494 0.40996 -1.81175 0.155378 -4.05284 0.521446 -0.0880317 -0.350713
75 1 2.85551 2.97547 5.69338 0.100915 -2.34477 1.98743 0.150498 -4.07232 0.0928038 -0.0622714 0.332702
36 1 4.34528 1.44692 4.37399 -3.50335 -1.057 -0.983752 0.238035 -4.11629 -1.02944 0.170533 0.0215668
38 1 7.2418 1.45387 4.30475 -0.494977 -4.21279 0.257384 0.387615 -4.13252 -0.674437 0.504752 0.339707
68 1 4.26086 1.64488 7.1457 1.8612 3.17184 -1.37818 0.377364 -4.07177 0.127584 -0.368913 -0.0429538
70 1 7.25784 1.62657 7.0943 0.868401 -0.0532684 -1.51046 0.499797 -4.14196 -0.822771 -0.752867 -0.270115
77 1 5.74198 2.93801 5.62402 -1.01562 1.16574 2.28098 0.274612 -4.06197 -0.263513 -0.249089 0.316336
73 1 11.3718 3.00083 5.72044 -0.507666 -0.309032 -2.1391 0.0833051 -4.0969 0.101895 -0.499441 -0.433802
40 1 9.87958 1.48986 4.27379 0.437014 -3.8238 1.33186 0.160621 -4.09244 0.435027 0.121829 0.358238
72 1 9.94613 1.57183 7.1425 1.50975 2.17599 2.11616 0.191266 -4.12612 -0.159629 -0.0199346 -0.199828
79 1 8.56911 2.96416 5.67978 -1.02649 2.31335 -3.08446 0.15326 -4.0332 0.123652 0.0895873 -0.115131
42 1 1.57888 4.39668 4.26594 -3.01911 0.43974 1.41028 0.235084 -4.12364 -0.712115 -0.259973 -0.00386216
50 1 1.53379 7.07078 4.32014 0.2386 -2.68699 0.990772 0.0751886 -4.10516 -0.0443321 0.652815 -0.086732
74 1 1.45228 4.3833 7.18537 1.07985 1.8406 1.3304 0.171833 -4.09268 0.373734 -0.338274 -0.0522978
82 1 1.60196 7.16423 7.21074 -3.64822 1.70423 0.778887 0.174517 -4.12217 -0.114531 -0.193447 -0.276271
83 1 2.95239 5.77743 5.71988 0.607755 0.391737 -0.57329 0.115448 -4.14625 -0.399707 -0.625772 0.524175
44 1 4.23722 4.26345 4.27628 -0.293283 0.411197 4.15925 0.250123 -4.12252 0.248614 0.747269 0.246205
46 1 7.1483 4.44375 4.31038 0.907024 -1.93428 -1.62394 0.28677 -4.18032 0.157667 -0.422657 0.145115
52 1 4.24762 7.10606 4.34248 -4.69089 -4.09749 3.33757 0.177648 -4.04168 0.639537 0.715423 -0.523225
54 1 7.15649 7.11069 4.37747 -1.63372 -2.36395 -2.49692 0.189567 -4.1147 0.0660743 0.32993 -0.221463
76 1 4.32318 4.33006 7.20495 0.820197 -0.966892 -0.618816 0.253126 -4.11906 0.383933 -0.537879 -0.927602
78 1 7.01682 4.25643 7.06649 -0.866962 1.61131 -1.05051 5.00924 -4.09732 1.19098 1.17572 0.327234
84 1 4.39147 7.17202 7.14318 1.59071 4.49889 0.997441 0.0973991 -4.11581 -0.481362 -0.160529 0.231119
85 1 5.6192 5.71907 5.59357 -3.2419 2.98934 -3.12626 0.535103 -4.06837 0.455377 -0.22903 1.07346
86 1 7.15642 7.08563 7.10998 -1.69222 0.242234 0.722329 0.259377 -4.06983 -0.542773 0.404062 -0.0686768
81 1 11.4158 5.74341 5.76826 -0.267947 0.284378 -3.26088 0.0498993 -4.12122 -0.143373 0.0196842 -0.25439
48 1 9.95131 4.34354 4.28473 0.267283 0.522141 -0.0740712 0.0978719 -4.12855 0.0242678 0.547885 0.304946
56 1 9.98628 7.09964 4.23312 0.476941 0.0523668 -1.86566 0.245108 -4.08223 -0.390095 -0.169059 0.495005
80 1 9.9665 4.35721 7.18604 -0.596181 0.624392 1.65311 0.0671528 -4.10715 -0.285752 -0.448202 0.509377
87 1 8.60216 5.74886 5.86068 -0.507852 -2.17793 -1.95372 0.464409 -3.94998 -0.506846 -0.906954 -1.50851
88 1 9.89731 7.04249 7.19305 0.339342 -0.150075 0.923792 0.319416 -4.06954 1.02373 0.902956 0.446001
65 1 0.0436241 11.4028 5.71333 1.79055 5.07772 1.74033 0.11366 -4.11174 0.457156 -0.238789 -0.0303974
67 1 2.86163 11.2645 5.82597 -2.01512 0.171362 0.198933 0.361349 -4.04877 0.653293 0.874758 -0.465236
58 1 1.50813 9.89531 4.31193 0.0998288 0.850608 -0.416656 0.0513708 -4.10276 0.0287781 -0.0131114 0.194119
89 1 0.145688 8.44466 5.78052 0.244373 -1.02867 2.29118 0.185395 -4.11521 -0.839755 0.513378 -0.323018
90 1 1.51168 9.88189 7.11227 2.76358 1.49283 0.752899 0.209497 -4.08048 -0.24768 0.279722 0.512931
91 1 3.00255 8.55615 5.80355 -0.160954 -0.886333 -5.92447 0.209503 -4.11945 -0.668388 -0.360969 -0.28446
69 1 5.75157 11.4047 5.86269 -1.77275 2.75933 -0.437379 4.84519 -4.08942 -0.187536 -0.184959 -0.762002
60 1 4.19504 9.93737 4.31048 -0.729815 -5.27829 0.479111 0.31428 -4.05147 0.826471 0.233958 0.111763
62 1 7.03596 9.93748 4.33534 -1.33723 0.976 -0.0541233 0.213922 -4.04766 0.373901 0.178481 -0.0888129
92 1 4.33797 9.96709 7.28084 2.94592 -3.33692 -0.864608 0.295105 -4.04623 -0.476965 0.182446 -1.05022
93 1 5.65457 8.59773 5.75542 2.73034 -5.749 0.281005 0.183502 -4.12779 0.634111 -0.062042 0.0022262
94 1 7.26888 10.0085 7.12494 -2.07336 2.13849 0.826509 0.280223 -4.04188 -0.720463 -0.916212 0.318435
71 1 8.59522 11.2704 5.7278 1.38838 -1.1299 3.1398 0.27436 -4.12163 0.0983676 0.639454 -0.259169
64 1 9.97203 9.97742 4.26345 1.93414 0.466519 0.0340942 0.130149 -4.02851 -0.393764 -0.498038 0.787369
95 1 8.61734 8.55522 5.72307 0.813609 0.427168 -1.54553 0.164423 -4.13062 -0.0371461 -0.0996177 -0.0488412
96 1 9.99141 9.93869 7.17606 1.32019 -2.33348 2.07251 0.134377 -4.07948 0.192923 0.369626 0.0748514
98 1 1.56131 1.49081 9.97225 -2.98724 0.73787 2.56192 0.144926 -4.00772 -0.561864 -0.0261674 0.635554
107 1 2.86691 2.89718 8.61284 0.232634 -0.876182 0.861469 0.157291 -4.13506 0.0251647 0.349658 -0.388315
13 1 5.81145 2.82198 11.3743 0.448013 -0.463728 1.8482 0.335013 -4.03845 -0.615494 0.947596 0.0716803
100 1 4.43897 1.48167 9.90248 -2.10312 -4.74577 4.20386 4.76518 -4.06981 -0.644345 -0.00880025 0.353442
102 1 7.11029 1.40261 9.94255 0.232118 -1.72386 0.202194 0.364768 -4.1279 0.348481 0.654431 0.15297
109 1 5.80539 2.93685 8.54971 4.4371 -1.18091 1.16991 0.165453 -4.11617 -0.831263 -0.734622 0.0737821
7 1 8.59049 0.158416 11.5033 0.68805 -1.68435 2.72502 0.516539 -4.11738 -0.231218 0.2111 0.124418
105 1 11.449 2.83211 8.55479 -2.72475 1.33859 0.953028 0.292307 -4.1084 -0.555194 0.512393 0.398189
103 1 8.5214 0.20725 8.53512 2.95552 0.225074 1.89593 0.315779 -4.04868 0.286406 -1.13632 -0.785911
104 1 9.90708 1.36738 9.95142 1.49085 0.723557 -0.645525 0.449574 -4.02514 0.752962 0.967086 0.201302
111 1 8.44934 2.87464 8.63849 1.49504 -0.482501 3.5867 0.4201 -4.06315 1.296 0.22829 -0.521695
19 1 2.93106 5.74698 11.289 0.71081 -0.406542 0.339089 0.0711244 -4.05283 -0.183599 0.00164254 0.446013
106 1 1.52313 4.34889 10.0179 2.50346 -3.20607 0.149022 0.19038 -4.11032 -0.146702 -0.380229 -0.311975
113 1 0.107983 5.81368 8.61748 1.37019 -1.36599 0.286128 0.180466 -4.13337 -0.156103 -0.491278 -0.467086
114 1 1.5633 7.15615 9.8915 -0.402852 -1.13493 0.54544 0.158213 -4.15416 0.0163739 -0.0383353 0.317722
115 1 2.95943 5.66881 8.48673 0.427161 -1.12949 -1.71094 0.284462 -4.07768 -0.399697 0.659645 0.787781
108 1 4.30275 4.2888 9.94108 -2.64238 0.529007 -0.272111 0.0979068 -4.11618 0.393585 0.00100562 0.256445
110 1 7.14132 4.20639 9.95078 -1.26077 -0.843882 1.65571 0.276821 -3.93139 -0.713377 1.30692 0.788035
116 1 4.27011 7.22974 9.92069 3.96752 2.49869 2.44851 0.186469 -4.12203 0.365315 -0.676262 0.292362
117 1 5.68853 5.78966 8.53701 1.64347 3.43868 -2.20277 0.184636 -4.06715 0.711265 -0.299734 0.687339
118 1 7.14427 7.22518 10.0621 -0.391447 0.932679 -2.38391 0.285475 -4.00555 0.137934 -0.732678 -1.43111
112 1 9.95773 4.30865 9.90422 -2.15729 -2.18134 -0.117981 0.197072 -4.05373 0.546054 -0.338111 0.382863
119 1 8.492 5.72889 8.70813 1.40746 -0.748377 0.390599 4.89629 -4.0969 -0.161926 -0.195007 -0.820509
120 1 9.93819 7.08972 10.0014 -3.91942 3.07283 -1.36442 0.152697 -4.15496 -0.245758 0.792344 -0.0548841
25 1 0.164779 8.46437 11.3866 0.194623 1.69727 2.25022 0.18695 -4.05747 -0.203105 0.420879 -0.335054
97 1 0.171616 11.4391 8.45166 0.481678 -0.437243 2.31013 0.456676 -4.08157 -0.601404 -0.685334 0.638034
99 1 2.87539 11.4575 8.58517 4.25882 1.15206 3.26033 0.271947 -4.12472 0.602793 -0.756617 -0.721814
121 1 0.0888696 8.47124 8.50135 2.85793 -1.67458 0.757388 0.127809 -4.06154 -0.058617 0.220876 0.39384
122 1 1.53693 9.94367 9.86214 -2.99665 -3.82537 2.2944 0.385205 -4.06056 -0.784885 0.279703 0.715098
123 1 2.97572 8.6187 8.6115 -0.391811 1.15041 -0.893062 0.164022 -4.09906 -0.309662 -0.266714 -0.832081
5 1 5.74569 11.4428 11.3915 -3.17053 1.67804 0.685111 0.189615 -4.03395 0.11291 -0.663952 0.491727
101 1 5.78964 11.3947 8.3961 0.447221 -1.69107 -1.26315 4.64749 -4.09876 0.307641 0.115142 0.814234
124 1 4.3597 10.0351 9.98205 1.15213 -4.20509 -0.530222 0.141202 -4.1003 -0.00644156 0.0247358 0.121497
125 1 5.75692 8.60198 8.5375 1.3934 1.66776 -0.608237 0.11953 -4.10684 0.696004 -0.113749 0.335924
126 1 7.3085 10.0043 9.96744 -0.247351 -1.96561 0.976245 0.439935 -4.14443 -1.23205 0.0493184 -0.039261
31 1 8.45713 8.54144 11.4275 2.32196 -3.29 -1.90058 0.189509 -4.03878 0.805813 0.104114 0.0859414
127 1 8.58081 8.54761 8.45765 -3.88747 2.10466 1.07978 0.273861 -4.06797 -0.306836 -0.554449 0.545071
128 1 9.93674 9.91973 10.0063 0.662971 1.02196 2.41912 4.9963 -4.12418 0.247445 0.168076 -0.490325
