ITEM: TIMESTEP
1750
ITEM: NUMBER OF ATOMS
128
ITEM: BOX BOUNDS pp pp pp
9.7447545743438724e-02 1.1366552454256400e+01
9.7617085015804683e-02 1.1366382914984076e+01
8.2650088606903718e-02 1.1381349911392977e+01
ITEM: ATOMS id type x y z vx vy vz c_csym c_peratom fx fy fz
2 1 1.52819 1.4917 1.44033 -0.82926 1.79691 0.890636 0.0956207 -4.04485 0.0877357 0.285482 0.229675
11 1 2.93532 2.91531 0.0613694 3.44258 -2.66106 -0.869785 0.096849 -4.13926 0.288875 0.243855 0.102485
41 1 0.204369 2.95796 2.82797 -0.709053 5.68839 -0.276006 0.419497 -4.04599 -0.443757 -0.323019 0.721586
43 1 2.99146 2.88828 2.98092 -0.83564 -4.0072 5.43691 0.159821 -4.16368 -0.571685 0.0066433 -0.527034
4 1 4.31727 1.44987 1.48866 0.580193 0.776239 0.647127 0.128526 -4.02617 -0.40697 0.513531 0.822931
6 1 7.08659 1.54014 1.46848 -3.7466 0.813164 3.80912 0.147435 -4.16342 -0.00766122 -0.112965 0.149717
37 1 5.70928 0.040818 2.88433 -2.45287 -2.98396 4.61164 0.146875 -4.16845 0.130493 0.717196 0.522803
45 1 5.7098 2.81141 2.96142 -1.19944 1.95097 1.795 0.306647 -4.06841 0.856819 0.986588 -0.825852
9 1 11.3443 2.88266 0.0341103 -3.15016 -0.0269287 3.17873 0.114451 -4.14077 0.492033 0.196345 0.305664
8 1 9.82171 1.63487 1.53351 2.50488 -0.302519 -0.663852 4.76433 -4.11388 1.07935 -1.28126 -0.022167
15 1 8.43536 2.9671 0.141873 0.877455 -2.30165 -0.328866 0.232395 -4.03557 0.160021 -0.209082 -0.697735
47 1 8.47962 2.93667 2.91932 -1.56385 -1.03035 3.23308 0.129241 -3.99601 -0.21899 0.0552458 0.150932
10 1 1.48146 4.26097 1.40782 1.54595 1.37468 0.903286 0.147398 -4.02467 0.582225 0.448234 -0.0951867
17 1 0.0389897 5.70225 -0.0182792 1.56312 -0.16017 0.671892 0.123894 -4.11141 0.18228 -0.0945727 0.469066
18 1 1.51589 7.07451 1.41395 -1.33301 -0.132889 -0.971923 0.21 -3.97742 0.555928 -0.483593 0.0330044
49 1 0.149209 5.72338 2.85068 0.712884 -2.66536 -1.02302 0.200951 -4.07551 -0.183387 0.251587 0.404532
51 1 2.90375 5.64016 2.97411 0.73164 -0.191799 1.56594 0.322679 -4.07124 -0.572298 0.491323 0.140221
12 1 4.35422 4.39945 1.63015 0.522568 -0.116978 2.65916 0.457342 -4.07526 -0.194857 -0.289673 -0.601209
14 1 7.11259 4.3726 1.46821 0.0838755 -0.713321 -0.679637 0.141519 -4.15106 -0.353856 -0.181811 0.821399
20 1 4.26666 7.01939 1.46802 2.57647 -0.699541 -0.989491 4.71988 -4.0829 0.220665 1.00189 0.332911
21 1 5.67837 5.75231 0.0639335 -2.29212 2.21739 0.541883 0.228499 -4.11071 0.816777 -0.258937 -0.100911
22 1 7.10507 7.18791 1.42491 1.2593 0.762969 0.969459 0.169507 -4.13635 0.394213 -0.186228 0.269717
53 1 5.76459 5.80614 2.93988 0.479126 -1.42227 2.33075 0.227541 -4.01877 -0.0834035 -0.278709 0.0258084
16 1 9.92419 4.19479 1.47018 -2.8179 -3.07033 -2.10416 0.285638 -4.18055 0.254279 1.20486 0.159082
23 1 8.45763 5.66715 -0.00986304 3.00479 -0.224016 -1.69708 0.337499 -4.07805 0.535622 0.129377 0.298263
24 1 9.86131 7.00085 1.45281 1.55324 -0.949451 0.897722 0.452697 -4.1111 0.24317 0.509684 0.0371392
55 1 8.49108 5.7232 2.87916 4.36476 -1.78856 0.990143 0.137468 -4.01261 0.144977 -0.107538 -0.00428617
1 1 0.0708244 11.4032 0.0188755 -2.30258 1.4369 2.22423 0.214658 -4.06139 -0.537636 0.231305 0.659757
3 1 3.01892 11.3702 0.098638 1.07663 -5.05565 1.60471 0.320947 -4.15095 -0.89864 -0.622005 -0.30756
35 1 2.88857 11.2847 2.98136 1.21325 -3.16107 -2.86114 0.322002 -4.15909 0.313016 0.55039 -0.618138
26 1 1.38585 10.0683 1.4458 -0.81675 0.708102 -0.707834 0.667919 -3.95039 1.37409 -0.869306 -0.381728
27 1 2.86506 8.64086 0.0148825 -0.193388 -0.585209 -4.07972 0.281386 -4.11356 -0.0778581 -0.486753 0.0603983
59 1 2.85823 8.54251 2.78408 1.39041 -2.34873 0.0323633 0.444751 -4.11105 -0.322952 0.235234 0.49037
28 1 4.37458 9.89505 1.47469 -3.17233 1.36675 0.273636 0.264558 -4.05486 -0.138848 0.150158 0.52794
29 1 5.73811 8.61241 0.111721 2.08416 -0.297815 -1.65158 0.163939 -3.9995 -0.154491 -0.532944 -0.3973
30 1 7.13606 9.99935 1.59399 -0.627204 1.07938 -2.20296 0.169777 -4.14232 -0.158737 -0.491444 -1.18982
61 1 5.84145 8.48984 3.05428 -1.32433 4.31835 1.29229 0.720187 -4.0042 -0.697131 -1.14546 -1.72992
33 1 11.4671 11.3901 2.85696 0.0602869 -0.301584 -0.997247 0.421488 -3.99943 -1.34413 0.35569 0.47568
39 1 8.47086 11.3261 2.95564 0.973744 -3.48377 -1.92724 0.244969 -4.06139 0.49256 0.803229 -0.164692
57 1 11.4068 8.47664 2.81949 3.55717 0.901969 3.16888 0.424018 -4.15453 0.00412211 0.277022 0.380191
32 1 9.87668 9.87962 1.44344 0.4908 -0.478439 -1.27977 0.36549 -4.05501 1.35302 1.53584 0.151194
63 1 8.63637 8.58914 2.85578 -2.1853 1.16186 -2.66063 0.402762 -4.07733 -1.49885 -0.751406 0.386792
34 1 1.50709 1.49957 4.37059 0.747209 3.8354 -2.56134 0.131673 -4.10314 -0.154148 -0.0644937 -0.477234
66 1 1.56182 1.54904 7.11868 3.30869 -0.492308 -0.595406 0.280315 -4.14713 -0.305431 -0.598813 -0.0714014
75 1 2.83103 2.93942 5.70636 1.15496 0.206361 -0.170641 0.284035 -4.09891 0.751303 -0.0811273 0.0568516
36 1 4.40663 1.53633 4.34145 2.85291 0.296984 2.11148 0.293637 -4.02754 -0.886824 -0.784079 0.747176
38 1 7.20726 1.52731 4.39629 0.151564 0.499484 -1.74759 0.247668 -4.09075 -0.331892 -0.367556 -0.511398
68 1 4.28329 1.52895 7.2268 -0.417697 2.10638 -2.85818 0.294453 -4.15237 -0.211946 -0.181876 -0.585052
70 1 7.20295 1.49265 7.0916 1.34073 -3.90507 -0.44267 0.127063 -4.08149 -0.473009 -0.471174 0.156112
77 1 5.74238 2.81586 5.82016 1.1551 0.50578 -0.431493 0.320892 -4.06548 0.130345 0.542344 -0.24852
73 1 11.3996 2.90157 5.78823 0.215256 0.44352 -0.91128 0.108315 -4.05901 -0.276068 0.18828 -0.376115
40 1 10.0577 1.54817 4.28235 1.33721 -0.494009 3.64697 0.226507 -4.15547 -0.59733 0.166965 0.0314538
72 1 9.88714 1.46064 7.1023 -1.31945 -0.493691 -1.65737 0.247868 -4.06305 0.436339 0.430829 0.129805
79 1 8.53202 2.91873 5.75713 -1.45148 -2.56041 -0.371788 0.141676 -4.05591 0.437837 -0.18715 -0.340175
42 1 1.49691 4.29606 4.31623 -1.3285 1.72805 -4.67138 0.0806557 -4.04466 0.0723255 0.080315 0.210497
50 1 1.57418 7.24608 4.4701 0.40313 1.27354 2.53468 0.747018 -3.95405 -0.430362 -1.37522 -1.6875
74 1 1.4797 4.32143 7.21744 0.70953 0.213602 0.733095 0.0822012 -4.16868 0.036658 -0.00538672 0.0286842
82 1 1.56098 7.14352 7.16052 4.50334 -0.488734 1.78517 0.11296 -4.18415 -0.585742 0.351627 0.169067
83 1 2.91378 5.7108 5.81813 0.711829 -3.35136 -2.34566 0.0863964 -4.09822 0.1244 -0.0514228 -0.504508
44 1 4.45592 4.25181 4.38449 -4.50381 5.20845 0.966025 0.402052 -4.10302 -0.222601 0.747947 0.0991543
46 1 7.16617 4.3249 4.3788 0.270691 -2.28795 0.790424 0.0598611 -4.19286 -0.450449 0.047464 0.166924
52 1 4.24494 7.15226 4.3265 -1.0501 1.14509 -3.61352 0.259099 -4.07659 0.548312 -0.0802764 0.17918
54 1 7.1995 7.0577 4.45111 -0.173147 -0.0343771 0.313069 0.419213 -4.10236 0.229153 0.56542 -0.725582
76 1 4.27333 4.25929 7.13653 1.19345 3.68341 -0.00594243 0.191879 -4.09626 0.252435 0.234519 0.202477
78 1 7.26295 4.38071 7.07984 0.0693052 -0.785291 -1.94765 0.379856 -4.1092 -0.963868 -0.546031 0.437454
84 1 4.33378 7.21224 7.2577 1.74515 -2.02239 -2.04883 0.196596 -4.06963 -0.098082 -0.217557 -0.594857
85 1 5.78849 5.83067 5.87546 -0.719214 1.09834 1.74256 0.435281 -4.0422 -0.879226 -0.626387 -0.718647
86 1 7.1821 7.18048 7.14603 -0.885716 1.34853 2.95669 0.0333439 -4.07793 0.589457 0.210804 0.0624041
81 1 11.4204 5.71768 5.72115 -4.72477 1.64556 -4.31634 0.0909523 -4.05812 -0.25588 0.152262 -0.243914
48 1 9.90215 4.3229 4.28847 3.47563 0.592873 -1.33559 0.161302 -4.16632 0.462596 -0.12765 0.0382203
56 1 9.89555 7.20677 4.21172 1.62697 -0.195156 0.82 0.401947 -4.00419 0.953988 -0.651223 0.976384
80 1 9.98201 4.24304 7.1255 -1.14641 1.58848 1.29028 0.177832 -4.11414 0.00713592 0.125556 0.213732
87 1 8.64141 5.77833 5.81974 0.464867 -0.434373 -0.80399 0.329224 -4.06965 0.0768114 -0.116795 -0.572369
88 1 10.0225 7.13533 7.16269 -1.51838 0.926988 -0.266081 0.100984 -4.10256 -0.0758474 0.00895499 -0.152724
65 1 0.0952336 11.3467 5.70348 -0.731799 1.80437 -0.806091 0.118118 -4.08528 -0.0738516 0.607584 0.542974
67 1 2.95228 11.3215 5.67128 -1.41337 -3.53844 -4.2078 0.298584 -4.09157 -0.0705665 0.53755 -0.0942301
58 1 1.4618 9.98174 4.43994 -0.337368 1.19685 -0.14446 0.52346 -4.06961 0.639882 -0.551059 -1.31668
89 1 0.179227 8.57166 5.74741 0.192021 3.10343 2.21244 0.149715 -4.00728 -0.98507 -0.714895 -0.372789
90 1 1.46231 10.0219 7.21005 -2.04007 -4.1241 3.97336 0.134734 -4.18289 -0.156162 -0.63276 -0.192245
91 1 2.90587 8.56091 5.76033 -1.75659 0.0374638 1.17989 0.152153 -4.0792 0.788124 0.803761 0.506848
69 1 5.7813 11.2989 5.75197 -1.8496 -0.169613 -2.22989 0.185047 -4.15608 -0.1371 0.0799898 -0.451348
60 1 4.37945 9.8568 4.16548 -0.800358 0.924955 -1.08058 0.592651 -4.00136 -0.811224 0.405076 1.26251
62 1 7.15876 9.86665 4.27859 -2.43125 0.874333 4.67449 0.2162 -4.04431 0.648341 0.885946 0.798857
92 1 4.2546 10.0504 7.08876 2.67094 -1.29577 -2.18982 0.369995 -4.0161 0.769509 -0.810475 0.673141
93 1 5.80602 8.59551 5.77145 -3.01276 -0.965823 -3.53006 0.165556 -4.18467 -0.585487 -0.267523 0.094546
94 1 7.22877 9.94999 7.20706 0.530323 0.509992 2.99836 0.179573 -4.03393 -0.00252909 0.19943 -0.376897
71 1 8.65115 11.3111 5.67997 -2.57463 2.17111 -2.20573 0.160419 -4.13857 -0.562157 0.0677905 0.292523
64 1 9.97666 10.0184 4.20484 3.57284 -1.61634 0.922977 0.270849 -4.11339 0.621137 -0.527553 0.45544
95 1 8.59097 8.62762 5.7451 -1.3018 -3.46439 -5.52 0.249883 -4.16746 -0.275499 -0.648971 -0.388842
96 1 10.0599 9.8296 7.06589 0.848312 0.770241 -3.92414 0.67022 -4.01422 -0.360712 1.62422 1.12518
98 1 1.57986 1.45217 9.96114 -1.5119 -2.53635 -0.884195 0.290679 -4.11428 -0.788349 0.0466191 0.918196
107 1 2.86369 2.8532 8.66623 -2.64424 -1.01576 1.8591 0.390413 -4.07304 0.604052 0.773266 -0.928919
13 1 5.5854 3.0166 11.4669 0.7835 0.67083 -2.26007 0.627244 -4.11102 0.482059 -0.467775 -0.412675
100 1 4.37548 1.49022 9.92883 2.97559 2.9948 1.32589 0.291356 -4.1628 -0.130068 0.0926565 -0.258393
102 1 7.09619 1.51269 9.98519 1.38733 2.00865 3.86334 0.0457868 -4.16327 -0.156766 0.00665079 0.152711
109 1 5.77467 2.92288 8.49028 -1.25762 -1.09879 -3.09773 0.196186 -4.0644 0.19999 0.0872873 0.0736347
7 1 8.48891 0.107263 11.4919 -3.49297 3.28465 -0.627804 0.252155 -4.01907 0.328626 0.147256 -0.40903
105 1 11.3944 2.84742 8.61331 -0.542793 -2.96421 2.05203 0.235095 -4.14874 -0.333089 -0.357532 -0.702417
103 1 8.53745 0.0816204 8.58701 0.272916 0.552081 1.28612 0.113501 -4.0814 0.253927 0.265595 -0.473434
104 1 9.88839 1.59042 10.0789 0.262929 -3.21189 0.611122 0.365891 -4.11497 -0.727518 -0.592326 -0.356335
111 1 8.48529 2.8318 8.49245 0.38048 0.783366 -4.38916 0.266983 -4.0841 0.459063 0.792774 0.500173
19 1 2.93091 5.66598 11.2497 -1.30318 -0.401717 3.25653 0.242142 -4.07435 -0.376436 0.174554 0.455407
106 1 1.43646 4.26708 9.92334 1.20522 -3.00249 -2.00001 0.0992376 -4.102 0.380321 0.454762 0.159464
113 1 -0.0146731 5.71334 8.62413 -3.64915 1.15642 -1.91576 0.395289 -4.09291 0.511568 0.256512 -0.711014
114 1 1.45769 7.16728 9.80269 0.279714 1.08093 -1.05331 0.46748 -4.05863 0.604549 -0.438974 1.29429
115 1 2.9061 5.75948 8.50378 4.74257 -1.15841 -0.399074 0.131011 -4.09353 0.229574 -0.259568 0.565476
108 1 4.3527 4.33941 9.82925 -0.266995 -1.01902 -1.67597 0.391619 -4.07224 -0.319579 -0.198723 0.569953
110 1 7.03667 4.28509 10.0215 4.01687 1.5425 -2.93146 0.226549 -4.02281 0.379995 -0.122766 -0.584978
116 1 4.34977 7.1074 10.0298 -0.549575 1.69542 -0.972343 0.239973 -4.06889 -0.104612 0.77684 -0.673438
117 1 5.7724 5.74055 8.53181 -1.36066 1.744 0.30744 0.0953436 -4.16103 0.0893222 0.202171 0.128088
118 1 7.28356 7.26323 9.93908 0.125209 -2.30355 -1.22324 0.486109 -4.01853 -1.3926 -0.729869 0.064873
112 1 9.97429 4.22024 9.87752 1.98352 2.21542 1.88259 0.355724 -4.06305 -0.991282 0.297197 0.756397
119 1 8.51305 5.7633 8.54517 -2.78068 -0.286859 0.373615 0.152102 -4.16271 0.408234 -0.233955 0.361243
120 1 9.92739 7.21979 10.0633 -3.20224 1.41885 1.25974 0.373223 -4.09649 0.296554 -0.486341 -0.620682
25 1 0.112977 8.49452 11.507 0.667268 0.344367 3.24361 5.07669 -4.1413 -0.404034 0.23898 -0.954236
97 1 -0.00505755 11.5319 8.62573 -0.883577 -0.692836 1.04102 4.73615 -4.08301 0.151456 -0.591967 -0.716543
99 1 2.80167 11.3605 8.53924 3.8894 -0.759798 -2.34056 0.265657 -4.03937 0.94928 -0.047024 0.378008
121 1 0.0272603 8.54296 8.61745 2.79703 3.14473 -1.90165 0.271699 -4.03163 0.165989 0.351655 -0.412422
122 1 1.35416 9.97657 9.98535 1.04656 -1.45603 -2.38212 0.360881 -4.08038 0.69348 -0.0670992 -0.210246
123 1 2.96695 8.58885 8.59811 -1.36032 0.133575 1.739 0.260417 -4.0432 -0.359354 0.0237215 -0.152922
5 1 5.64262 11.4337 11.4033 0.655612 -0.195899 0.525626 0.225662 -4.05905 0.847009 -0.72094 -0.129769
101 1 5.75911 11.363 8.42214 0.701613 1.52026 0.353548 0.40216 -4.0947 -0.0834855 0.0487435 0.404816
124 1 4.36984 9.9826 9.85606 -2.39136 -1.60605 1.02616 0.282749 -4.09631 0.0271551 0.339447 0.403848
125 1 5.85744 8.57248 8.53347 2.06626 -0.625943 2.98614 0.295132 -4.1081 -0.80848 0.0252635 0.0977032
126 1 7.09533 10.0839 10.0172 -0.117456 6.33727 2.05057 0.321055 -4.13347 0.395591 -0.713216 0.00479074
31 1 8.566 8.58575 11.3576 -2.07722 0.174501 -0.487994 0.129622 -4.04244 -0.533844 0.189405 0.275395
127 1 8.64012 8.5437 8.48074 -1.93738 0.820322 1.26888 4.92743 -4.13627 -0.46167 0.302688 0.453952
128 1 9.90955 10.0514 9.94263 -1.77141 -1.50069 5.76307 0.273064 -4.10402 0.460205 -0.717146 0.568752
