ITEM: TIMESTEP
17000
ITEM: NUMBER OF ATOMS
128
ITEM: BOX BOUNDS pp pp pp
8.7725001674463954e-02 1.1376274998325268e+01
8.9705650027183559e-02 1.1374294349972683e+01
8.2649227081057305e-02 1.1381350772918825e+01
ITEM: ATOMS id type x y z vx vy vz c_csym c_peratom fx fy fz
2 1 1.47483 1.51497 1.52424 0.683027 1.91982 -2.26502 0.106365 -3.98037 -0.279756 -0.389674 0.027265
11 1 2.82776 2.79728 0.107078 -0.557121 -3.40343 1.3133 0.466073 -4.15574 0.544397 0.724999 -0.259755
41 1 0.0691559 2.85353 2.88763 4.19506 2.4518 1.65468 0.274751 -4.10074 0.46002 0.848729 -0.412082
43 1 2.95196 2.98159 2.80869 -0.0703772 2.89485 -0.941718 0.446703 -4.05322 -0.286055 -0.422881 0.470408
4 1 4.32351 1.46905 1.60082 0.422122 -0.484418 1.69799 0.371494 -4.05802 -0.210676 0.123429 -0.583445
6 1 7.11965 1.41031 1.54172 0.51936 5.94049 4.02752 0.304153 -4.08848 0.390608 0.247557 -0.614083
37 1 5.73661 0.089041 2.98462 -4.35961 0.197487 1.46557 0.176926 -4.18069 0.0732517 -0.0124573 0.0651107
45 1 5.80723 2.86443 2.81653 -2.3736 -2.16257 2.17101 0.381163 -4.07508 -0.613687 0.575411 0.255706
9 1 11.3971 2.95274 0.181128 0.684347 3.67596 0.818506 0.284192 -4.10026 0.31052 -0.453897 -0.401114
8 1 9.84226 1.38402 1.53971 -0.768761 -0.0181658 -0.4948 0.591518 -4.10167 0.326319 0.635269 -0.318357
15 1 8.53741 2.81711 0.0884126 0.287189 -0.879478 -4.28061 0.211946 -4.08873 -0.268411 0.950462 0.555717
47 1 8.62817 3.00195 2.88601 1.39768 5.82775 2.63068 0.281617 -4.1088 -0.357329 -0.54768 -0.0391415
10 1 1.58656 4.4162 1.50053 0.047569 -0.0457968 4.55954 0.319307 -4.09045 -0.398603 -0.276607 0.244372
17 1 0.141618 5.76651 0.153968 0.503504 -1.99 -1.83626 0.0748189 -4.07539 0.0228651 0.0184183 -0.487617
18 1 1.56926 7.17367 1.47984 2.98617 2.65728 0.470058 0.188783 -4.16462 -0.26545 -0.0115401 -0.0256334
49 1 0.201765 5.7378 2.95547 -2.06737 -0.631644 -1.856 0.124591 -4.10199 -0.244577 0.0284394 -0.285335
51 1 2.87964 5.77144 2.96871 -0.580537 -0.830519 0.845127 0.160017 -4.10272 0.276524 0.250975 -0.26977
12 1 4.25768 4.47241 1.45527 -0.843384 0.563347 -0.041563 0.688941 -4.05766 0.562507 -1.0551 0.186436
14 1 7.19569 4.35376 1.39737 1.28355 -1.5459 -2.11834 0.189079 -4.05447 -0.335864 -0.588259 0.685432
20 1 4.36482 7.16259 1.45779 3.9181 2.60002 5.28746 0.118962 -4.13799 -0.375012 -0.441764 0.0998991
21 1 5.7995 5.60927 0.0148709 2.01681 2.87338 -2.21823 0.489341 -4.00666 -0.487937 0.583245 -0.124572
22 1 7.06802 7.1686 1.38554 -3.98303 1.26161 2.58389 0.308918 -4.10205 0.654979 -0.388451 0.877458
53 1 5.79392 5.73424 2.91318 1.56853 2.32166 0.930873 0.126356 -4.04999 -0.433436 -0.187942 -0.442321
16 1 10.0355 4.37751 1.48977 0.128198 0.510046 0.228447 0.146431 -4.06968 -0.441047 -0.100675 -0.154489
23 1 8.52487 5.73212 0.0666158 -0.849702 3.49765 0.0201795 0.0469647 -4.08274 0.579912 0.388749 -0.119129
24 1 9.98073 7.20394 1.5655 0.652854 2.3858 0.534831 0.138637 -4.10297 -0.152476 -0.554817 -0.148584
55 1 8.51834 5.74457 2.86186 -0.186603 2.07299 2.88371 0.0853775 -4.09593 0.37475 -0.322967 -0.313274
1 1 0.0726056 11.3267 0.0561436 -0.31917 1.66776 -4.20225 0.0939205 -4.11089 0.323553 0.512182 0.233693
3 1 2.86122 11.4398 -0.00508412 -0.629076 1.44429 1.30989 0.183375 -4.16484 0.0223172 -0.348403 0.271918
35 1 2.80246 11.4287 2.88721 -1.54862 -0.150713 -2.70266 0.213243 -4.09816 0.0838733 -0.253858 0.381555
26 1 1.50782 9.86231 1.41695 -2.05733 0.59713 -2.25112 0.437339 -4.05949 0.201266 0.7189 0.326232
27 1 3.00393 8.56067 0.0816194 3.65326 -0.640552 -2.52422 0.334338 -3.98668 -0.0998619 0.387779 0.131274
59 1 2.89905 8.54733 2.96165 3.85372 -2.30176 2.4513 0.143015 -4.09336 0.237851 0.12516 -0.120528
28 1 4.20884 10.1526 1.51342 0.774332 1.76739 4.42558 4.4957 -4.03688 0.583939 -1.07485 0.310948
29 1 5.73025 8.63772 0.157575 -3.9486 0.634594 -0.658474 0.41193 -3.98787 0.000735141 0.296388 -0.411035
30 1 7.29537 10.0435 1.54531 -0.497999 -5.06732 4.64064 5.25683 -4.04437 -1.29451 -0.1183 -0.45339
61 1 5.75919 8.60976 2.93662 1.91957 1.78113 0.91592 0.168285 -4.07962 -0.343351 -0.28537 -0.462116
33 1 11.3227 11.3802 2.86545 -1.22345 0.157381 2.33531 0.162603 -4.12138 0.296765 -0.407432 0.20498
39 1 8.41185 11.485 3.06306 0.49594 0.286123 1.31392 0.856878 -4.08653 1.15716 -0.96919 -0.157047
57 1 11.379 8.62433 2.8791 -1.51982 4.38872 0.763701 0.147799 -4.11072 0.159695 -0.41593 0.441593
32 1 9.8268 10.048 1.52698 -1.09657 1.18715 0.162462 5.01876 -4.1195 0.393732 -0.27579 0.0485273
63 1 8.53098 8.59995 2.92258 3.89744 -2.92037 1.33196 0.100812 -4.10837 -0.325102 -0.539875 0.0855447
34 1 1.43253 1.60092 4.35786 1.2851 -0.737488 0.297535 0.239458 -4.166 0.638358 -0.364253 -0.09981
66 1 1.54906 1.45509 7.14385 1.69307 -3.1049 3.77392 0.181787 -4.1705 -1.14059 -0.407206 -0.743437
75 1 2.9093 2.84792 5.80794 1.24787 -1.82132 2.25403 0.13439 -4.02341 0.300097 0.229792 -0.327141
36 1 4.27944 1.49001 4.30868 1.51093 -3.17648 2.87371 0.101789 -4.14426 0.0491064 0.280122 -0.253897
38 1 7.19304 1.6126 4.39967 -1.6452 -0.612875 2.70315 0.341065 -4.02482 -0.410796 -0.15567 -0.115902
68 1 4.27309 1.43192 7.14784 -3.23904 2.65855 -2.38301 0.0911058 -4.12515 0.491886 0.511875 -0.217661
70 1 7.26414 1.58232 7.18367 -0.956952 1.48961 -2.41122 0.287906 -4.05632 -0.867446 -0.771295 -0.558769
77 1 5.7345 2.88329 5.71426 -1.55533 -0.275638 1.75586 0.0833359 -4.03417 -0.130144 0.019916 0.154672
73 1 11.3659 3.00674 5.79405 -0.680816 -0.812916 0.342999 0.28357 -4.10811 -0.112055 -0.61607 -0.173525
40 1 10.0667 1.54414 4.32665 -1.31894 0.0271402 -4.57221 0.34473 -4.11947 -0.974295 0.144416 -0.118042
72 1 10.0166 1.50423 7.12915 -3.82801 -3.76095 -4.22184 0.0884856 -4.09051 -0.23775 0.0166102 -0.137848
79 1 8.65099 2.99603 5.75075 -2.8424 2.63611 -5.11675 0.166142 -4.12473 -0.159227 -0.40438 -0.437392
42 1 1.60385 4.27131 4.43688 -1.53543 -3.3699 -5.40812 0.4308 -4.14778 -0.496962 -0.086003 -1.06129
50 1 1.54418 7.1395 4.33884 1.56128 -2.41659 -1.1701 0.0542622 -4.03707 -0.47803 0.395913 0.0529166
74 1 1.52047 4.29756 7.07906 0.240764 -0.856301 0.89493 0.191201 -4.13436 0.184372 -0.0299416 0.712686
82 1 1.42432 7.12073 7.28229 -0.680561 0.0369004 0.436147 0.402482 -4.06148 0.340615 0.276423 -1.26405
83 1 2.90673 5.74344 5.74056 4.69912 -3.10463 1.39056 0.12241 -4.12263 0.0973698 0.0334553 0.370407
44 1 4.29409 4.31796 4.31006 1.65518 1.50467 5.52807 0.105081 -4.14334 0.564607 -0.0398074 0.205231
46 1 7.15412 4.28323 4.21369 2.65346 5.11371 -3.49475 0.283755 -4.10732 -3.24918e-06 0.122606 0.782229
52 1 4.36194 7.08089 4.38942 0.486384 -3.68192 2.93636 0.099029 -4.07201 0.215409 0.160219 -0.463247
54 1 7.1892 6.99367 4.29886 -0.988803 4.63207 0.978786 0.4172 -4.03867 -0.242558 1.28108 0.222142
76 1 4.42382 4.24029 7.14062 4.04544 -0.985744 0.00732851 0.266123 -4.084 -1.23612 0.444773 0.0472934
78 1 7.15414 4.26122 7.08704 0.661577 0.274218 2.25557 0.173991 -4.13714 0.223433 -0.261894 0.58188
84 1 4.31665 7.05285 7.1376 0.501959 -2.91703 0.26347 0.116311 -4.11085 -0.343996 0.601941 0.062628
85 1 5.85986 5.71065 5.81294 0.646827 1.55723 -1.24037 0.369332 -4.13553 -0.632155 0.109412 -0.813871
86 1 7.17301 7.17175 7.24582 2.98457 4.88394 -2.51316 0.28606 -4.11683 0.329798 -0.192974 -0.88632
81 1 11.4939 5.72074 5.70209 -0.0353386 0.615943 -1.16016 0.222647 -4.11077 -0.781392 0.257159 0.482554
48 1 10.0482 4.34336 4.27009 1.9892 0.0940907 -1.2219 0.176405 -4.10867 -0.396369 0.400949 0.299475
56 1 9.92021 7.1131 4.29588 -1.17647 0.821234 -2.51226 0.11281 -4.07039 0.387586 0.219963 0.276073
80 1 9.96976 4.335 7.16944 2.33924 -2.27422 0.658409 0.0948509 -4.06339 0.264553 0.493845 0.147686
87 1 8.51484 5.71591 5.77059 0.221224 0.266578 0.916289 0.173758 -4.12911 0.316539 -0.298411 -0.423959
88 1 9.95256 7.17999 7.08341 -1.22087 -2.4946 -3.33915 0.155804 -4.03898 0.0826721 -0.554536 0.0320555
65 1 0.00087059 11.3957 5.67823 -1.84919 0.811704 -0.369899 0.282025 -4.06136 0.636083 -0.481157 0.566205
67 1 2.91253 11.3838 5.7133 -4.45817 0.18343 -1.47072 0.0466982 -4.04432 0.056373 -0.272829 0.239072
58 1 1.45363 10.0736 4.33648 -0.983249 -1.29073 0.649213 0.15948 -4.04001 0.320745 -0.399752 -0.113978
89 1 0.0567362 8.60023 5.74787 0.409432 4.08708 0.66172 0.0973725 -4.09424 0.417934 -0.264701 -0.245077
90 1 1.5194 9.99375 7.2138 -2.39863 -1.1457 -0.854099 0.209491 -4.16893 -0.334382 -0.145625 -0.585307
91 1 2.90823 8.52629 5.73764 4.33348 -0.519107 -1.36178 0.0737589 -4.08292 -0.353123 -0.0149677 0.145086
69 1 5.7138 11.3627 5.72444 -0.2336 5.3675 -2.38939 0.0950067 -4.11524 0.177706 0.101049 0.148774
60 1 4.25232 9.96286 4.31765 -2.13769 -2.24188 -4.41033 0.0842165 -4.05609 0.0975059 -0.0193428 0.263823
62 1 7.05926 9.89407 4.37999 -0.598662 -0.585916 1.25623 0.217616 -4.00205 0.488212 0.469998 0.00863722
92 1 4.34171 9.87589 7.18988 0.657056 0.171531 1.24915 0.200122 -4.12557 -0.592791 0.668155 -0.584126
93 1 5.78098 8.47647 5.79743 -0.965874 2.308 0.286521 0.141411 -4.16715 -0.331461 0.201178 -0.693917
94 1 7.06924 9.98096 7.20575 0.0597062 -1.55707 0.998624 0.253793 -4.07 1.00987 0.613292 -0.278961
71 1 8.57856 11.3243 5.70423 -0.54226 0.0111265 -1.16611 0.168458 -4.08952 -0.337011 0.439249 0.606266
64 1 9.90136 9.94825 4.35289 2.97886 0.768866 -2.20478 0.122158 -4.08884 0.205994 0.00159371 -0.591903
95 1 8.49615 8.53694 5.74101 -2.46698 -1.23606 -2.37952 0.081019 -4.17028 0.0765866 0.106955 0.0799219
96 1 9.9838 9.9245 7.19385 0.279849 -1.79252 2.63568 0.161841 -4.1188 -0.450017 0.274732 -0.539764
98 1 1.46663 1.45162 9.8198 3.00283 -1.94653 1.97264 0.443215 -4.04284 -0.532573 0.164874 0.855376
107 1 2.82996 2.7839 8.498 2.30595 2.75149 -0.244325 0.262954 -4.10103 1.08454 1.25484 0.428834
13 1 5.67839 2.82817 11.3609 -2.80365 -6.01585 -0.873103 0.251627 -4.09362 0.268331 0.701652 0.399392
100 1 4.29389 1.52882 9.95489 2.53273 0.237036 2.10205 0.0802079 -4.0604 0.020591 -0.219449 -0.0356259
102 1 7.1618 1.52374 9.95675 -0.816494 -2.42045 -0.0164682 0.0502362 -4.10482 -0.187793 -0.159952 -0.0143343
109 1 5.71633 2.89808 8.56581 0.466212 -1.731 -0.640776 0.0560287 -4.08001 0.233103 -0.238455 -0.0652286
7 1 8.56443 0.0747196 11.2394 4.54153 -1.68052 -1.00207 0.528327 -4.10274 -0.243632 -0.0317434 0.595455
105 1 11.3402 2.91739 8.55923 0.235584 -3.10056 -1.876 0.122052 -4.13707 0.379036 0.0277272 -0.273208
103 1 8.6477 0.163916 8.625 -1.43217 1.84519 -2.42354 0.245341 -4.1217 -0.261395 -0.338998 -0.565903
104 1 9.97375 1.581 10.0655 -2.12798 -3.01662 -2.90119 0.407435 -4.09315 0.57355 -0.675179 -0.746923
111 1 8.63561 2.86884 8.52917 1.34327 0.592887 -0.597108 0.128581 -4.13329 0.177607 0.57351 0.425467
19 1 2.88947 5.71663 11.3185 3.80105 -2.98672 -0.408715 0.191709 -4.04019 0.0265376 0.32688 0.0980802
106 1 1.53181 4.33675 9.88326 -0.526382 -1.00037 1.30396 0.291979 -4.05924 -0.377132 -0.971642 1.49226
113 1 0.146174 5.66543 8.60679 -3.04348 0.62474 -1.2309 0.245422 -4.06838 -0.761994 0.712988 -0.274208
114 1 1.57764 7.27417 10.0631 1.04641 -1.29191 -1.20931 0.731776 -4.14806 -1.17156 -0.939143 -0.207844
115 1 2.80452 5.719 8.55093 -0.213435 0.725643 -1.05896 0.360967 -4.04309 1.01015 0.129702 -0.384114
108 1 4.22398 4.25059 9.93327 -0.536005 -0.715316 1.57307 0.107874 -4.08591 0.525172 0.401801 -0.0810737
110 1 7.22283 4.31474 9.87883 -1.46139 -1.87148 2.43133 0.214738 -4.10395 -0.567425 -0.223199 0.223418
116 1 4.36758 7.04805 9.88421 0.305026 -1.5208 -0.00727885 0.262165 -4.19713 -0.18305 0.474599 0.51823
117 1 5.74047 5.74236 8.43263 -3.03835 -1.88359 1.2829 0.257338 -4.0678 0.183946 -0.854149 0.791771
118 1 7.02295 7.12545 9.94573 -1.32916 -1.5934 -0.352432 0.278449 -4.14454 0.421755 0.145885 0.0785409
112 1 10.0229 4.25721 10.044 -4.46784 -2.64534 0.852562 0.178413 -4.06985 -0.552672 0.387113 -0.134417
119 1 8.51946 5.73376 8.49518 0.288011 0.613856 -2.73622 0.182654 -4.08023 0.553217 -0.0408454 0.674154
120 1 9.97512 7.10679 10.0074 -1.90838 -2.11028 0.410862 0.114373 -4.0326 -0.0683457 -0.123393 -0.461349
25 1 -0.0255952 8.60152 11.464 1.2491 -0.635185 -3.24741 0.460442 -4.06391 0.381003 -0.141988 -0.580598
97 1 0.0649109 11.3624 8.51363 -0.458516 2.69947 -1.03433 0.119791 -4.09165 -0.318844 0.175257 0.215497
99 1 2.96562 11.3801 8.60096 2.91567 3.9927 -1.13105 0.22919 -4.13649 0.0510301 -0.243534 -0.236562
121 1 -0.00874492 8.4954 8.5064 -1.25564 -2.55027 2.13924 0.409554 -4.06947 0.439931 0.0780119 0.713998
122 1 1.4492 9.94054 9.82083 0.251481 0.139879 0.738176 0.393487 -4.15817 0.247302 -0.187118 1.09394
123 1 2.83657 8.50044 8.56036 0.734763 1.08785 -2.05994 0.200861 -4.00738 0.995962 0.131579 -0.478399
5 1 5.67812 11.3843 11.4135 3.79264 0.725341 0.971772 0.157566 -4.13232 0.362242 0.00698671 -0.350062
101 1 5.68654 11.4397 8.52866 -0.170968 -0.999755 -0.265856 0.169304 -4.08101 0.381585 -0.171882 0.348558
124 1 4.30807 9.90679 9.95401 -1.3073 -0.673118 2.15789 0.186156 -4.10506 0.106157 0.227855 -0.375658
125 1 5.75329 8.52887 8.43649 0.698735 3.35507 0.805939 0.269101 -4.03712 -0.66061 -0.0820324 1.49944
126 1 7.15556 10.0041 9.85758 -2.05814 -3.11196 1.17809 0.300696 -4.06217 -0.490923 -0.227 0.734645
31 1 8.51809 8.50587 11.3422 0.2721 -0.228919 -0.853324 0.24028 -4.13029 0.181957 0.30795 -0.107014
127 1 8.55174 8.57938 8.60501 -4.98733 -0.934853 -0.000865314 0.113809 -4.1422 0.116725 -0.3826 -0.218745
128 1 9.99671 9.96269 9.93115 -3.0512 -0.766067 0.235261 0.149151 -4.11661 -0.102621 -0.0451428 0.344437
