ITEM: TIMESTEP
11000
ITEM: NUMBER OF ATOMS
128
ITEM: BOX BOUNDS pp pp pp
8.8667687815243035e-02 1.1375332312184517e+01
7.9231330860226379e-02 1.1384768669139682e+01
8.2649566042046055e-02 1.1381350433957836e+01
ITEM: ATOMS id type x y z vx vy vz c_csym c_peratom fx fy fz
2 1 1.54109 1.59488 1.43493 -0.0643819 -1.41682 -4.846 0.263987 -4.10534 -0.534542 -0.636147 0.438594
11 1 2.90424 2.9012 0.120527 -1.52578 0.370428 0.109883 0.0869589 -4.04737 0.642464 0.324814 -0.669242
41 1 0.101407 2.76372 2.91898 -0.257958 1.43958 0.934387 0.608581 -4.08248 0.25915 0.71467 -0.239426
43 1 2.86585 3.05757 3.01536 0.784588 -0.0463048 3.04262 0.611209 -4.11878 0.4159 -1.53191 -0.889502
4 1 4.30496 1.60902 1.5906 0.567383 -1.96548 -3.04942 0.191672 -4.16035 0.00347793 -0.328829 -0.197148
6 1 6.98987 1.40892 1.67671 2.1227 -3.86607 -4.2513 4.83485 -4.07295 0.896691 0.486387 -1.15997
37 1 5.59776 0.0307913 2.899 1.40597 -0.825339 -0.38556 0.26336 -4.04124 0.0743836 -0.158125 0.454001
45 1 5.7354 2.95568 3.07001 3.0824 3.09896 -1.25436 0.428074 -4.11375 -0.00738356 -0.071897 -1.00782
9 1 11.3905 2.94298 0.0255303 -1.676 0.808555 0.259686 0.133573 -4.13739 -0.095325 -0.0657841 -0.0355941
8 1 10.0072 1.50837 1.35644 -0.615854 1.28154 1.78891 0.26349 -4.00274 0.0511926 -0.418046 0.766768
15 1 8.5518 2.84963 0.0686216 -1.22317 -0.87699 -4.92821 0.131809 -4.13924 -0.265716 0.263383 0.140668
47 1 8.55025 2.86153 2.7932 0.60225 1.12212 -0.10571 0.337451 -4.10385 0.338376 0.264827 0.93809
10 1 1.53094 4.33937 1.411 1.01797 1.58342 0.0482937 0.206968 -4.13082 -0.438659 -0.519961 0.527319
17 1 0.0605698 5.72658 0.0238381 -1.16515 3.63648 1.27117 0.119313 -4.16251 -0.0767193 -0.0173221 -0.199318
18 1 1.52445 7.20296 1.29366 -1.1702 0.451975 1.90923 0.520345 -4.11422 0.30354 -0.116349 0.55041
49 1 0.179802 5.7778 2.69726 -0.621453 -2.12101 0.394117 0.611635 -4.06179 -0.141622 0.181276 0.86231
51 1 2.89494 5.63708 2.88774 -2.48803 0.926471 -3.79553 4.55572 -4.11257 0.0361211 0.866216 0.0217356
12 1 4.37196 4.2758 1.51526 -3.02026 -2.19088 -1.44044 0.203079 -4.16577 -0.0654814 0.141254 -0.0514267
14 1 7.16131 4.22253 1.51648 -2.02411 -1.53199 1.53473 0.156451 -4.05281 -0.590881 0.617278 -0.300468
20 1 4.28865 7.19138 1.5154 -2.24848 1.14412 -0.0606143 0.160503 -4.10205 -0.260218 -0.272703 -0.233903
21 1 5.64238 5.78733 0.164361 2.1078 -0.56282 -0.725122 0.20386 -4.04804 0.6949 -0.14434 -0.0718539
22 1 7.12293 7.19003 1.49278 0.885521 0.756374 -2.90648 0.116857 -4.06412 0.190854 -0.178933 -0.202109
53 1 5.8086 5.72811 2.93034 0.402263 -1.8978 2.80378 0.15997 -4.14658 -0.675524 0.421713 -0.386679
16 1 10.1207 4.26015 1.49576 2.66578 -0.645692 0.368834 0.456597 -4.06103 -0.773026 0.0425988 -0.166975
23 1 8.54899 5.68205 0.136683 -0.489649 -1.94062 -0.885719 0.145987 -4.11492 0.317093 0.152565 0.192836
24 1 10.0087 7.20031 1.49264 -0.647312 2.23056 -0.800792 0.188856 -4.07078 -0.370762 -0.370485 -0.0290172
55 1 8.57842 5.65306 2.87109 -1.05008 4.44796 3.578 0.263034 -4.08614 -0.174322 0.782495 0.092771
1 1 0.0944262 11.3041 0.0715487 -3.03442 4.77755 0.015034 0.251834 -4.12235 -0.31075 0.55816 0.244924
3 1 2.99167 11.4779 0.107925 -1.05629 -3.96687 1.48839 0.314136 -4.10162 -0.0982225 -0.25767 -0.356444
35 1 2.87057 11.5164 2.92668 -0.8403 3.30792 2.79753 0.298895 -4.07048 -0.678428 -1.12623 -0.569101
26 1 1.5684 10.0983 1.40568 -1.28854 1.18862 2.38504 0.393347 -4.03894 -0.180369 -1.22446 0.584722
27 1 2.92897 8.68228 0.0291501 -1.03292 -1.05069 2.39814 0.254531 -3.98799 -0.479679 -0.702534 -0.193494
59 1 2.90413 8.51105 2.93517 1.00741 -1.78543 -2.13484 0.192203 -4.04613 -0.370451 0.361996 -0.132148
28 1 4.20993 9.9246 1.49035 -1.86538 1.85852 2.37991 0.318034 -4.06984 0.877698 0.594785 0.615661
29 1 5.71853 8.57843 -0.0012996 1.77066 -2.25235 2.90515 0.220588 -4.13735 -0.253611 0.321334 0.565632
30 1 7.12659 10.003 1.57242 3.342 0.701542 0.982815 0.180159 -4.12406 0.394713 -0.27316 -0.341053
61 1 5.7548 8.54004 2.85274 2.6723 -3.2114 -0.679797 0.216729 -4.09091 -0.491679 0.180946 0.510014
33 1 11.441 11.3566 2.88491 0.960018 -0.515561 -1.37367 0.165951 -4.07306 -0.400443 0.524946 0.279166
39 1 8.61271 11.3977 2.92195 4.05514 -2.74313 0.0100086 0.256166 -4.04857 0.243856 0.258292 0.158122
57 1 11.5017 8.55157 2.84463 -1.33745 3.41931 0.575316 0.275246 -4.08996 -0.414086 0.134393 0.0981115
32 1 9.931 9.89558 1.51659 1.97967 0.730393 -2.07419 0.190129 -4.07686 0.119233 0.483711 -0.223479
63 1 8.56919 8.49399 2.98738 -1.76704 1.08062 -2.96229 0.226134 -4.10522 0.0691851 0.21347 -0.161983
34 1 1.50953 1.47825 4.41897 -0.598709 0.45015 3.56996 0.204987 -4.08286 0.192323 -0.124516 -0.479028
66 1 1.53157 1.49021 7.209 -3.22617 -1.43328 3.08565 0.10355 -4.10916 -0.439813 -0.381059 -0.0538417
75 1 2.88614 2.93518 5.74109 -2.72115 -1.64396 -1.15676 0.156139 -4.24337 0.522916 -0.360124 0.00284337
36 1 4.2866 1.44251 4.25773 -0.16069 -1.04311 3.85903 0.357358 -4.13089 0.516904 0.928643 0.810233
38 1 7.08351 1.52136 4.31221 1.86459 -0.315266 0.362545 0.122989 -4.11042 0.380067 -0.672723 -0.0638191
68 1 4.40147 1.42104 7.0708 1.69436 -3.09589 0.715547 0.289596 -4.10676 -0.758835 0.463103 0.771846
70 1 7.07889 1.38864 7.1474 -7.74514 2.16843 3.93264 0.267119 -4.03951 0.531573 0.836603 0.0919474
77 1 5.70845 2.8848 5.68498 -4.05907 -2.84131 -1.46331 5.12175 -4.13404 0.318388 0.39741 0.672722
73 1 11.4109 2.7795 5.77303 4.20774 0.505239 2.68215 0.389734 -4.0409 0.427224 1.6313 -0.116683
40 1 9.98226 1.60032 4.40297 1.0185 -1.60458 0.116213 0.530519 -3.98573 -0.296229 -1.36995 -1.157
72 1 10.015 1.52054 7.07716 0.635835 -1.84021 0.0914591 0.284673 -4.03471 -0.819158 -0.216686 0.859967
79 1 8.55376 2.91461 5.65428 0.25838 -1.91148 -1.24734 0.169538 -4.05141 -0.578272 0.248374 0.571106
42 1 1.4738 4.27888 4.34459 -0.322428 -4.61409 -2.05479 0.258957 -4.06457 -1.01486 0.563913 0.2545
50 1 1.47483 7.06837 4.22233 1.2689 2.43859 1.38173 0.21723 -4.06947 0.239201 0.120402 0.425638
74 1 1.44617 4.16292 7.20505 0.964223 -4.91322 -1.59597 0.398498 -4.0796 0.0144092 0.843301 -0.370287
82 1 1.4213 7.13527 7.31234 0.0485941 -1.07106 -2.89884 4.97105 -4.05211 0.338886 -0.0815153 -0.963114
83 1 2.93309 5.59235 5.75557 -1.97479 2.05258 -0.470398 5.06954 -4.12986 -0.382911 1.0949 0.284155
44 1 4.35013 4.35537 4.30597 4.07485 4.81584 -1.82245 0.162967 -4.04728 -0.107265 0.2714 0.374971
46 1 7.0976 4.40297 4.34006 1.30681 0.347874 1.28526 0.256644 -4.0344 1.05643 -0.640623 0.0627984
52 1 4.29851 7.12317 4.37852 1.05079 -1.62941 -2.19662 0.11619 -4.03551 0.254856 -0.106839 -0.592259
54 1 7.11931 7.1988 4.32111 3.26259 -0.322077 -0.186901 0.113837 -4.06971 0.0468764 -0.569081 -0.240822
76 1 4.35274 4.298 7.15952 -3.14789 0.0482783 5.35381 0.119519 -3.98584 0.484972 -0.322087 -0.452778
78 1 7.21901 4.38553 7.20501 -2.45439 -0.621271 1.90378 0.333769 -4.0476 -0.658717 -0.397881 -0.464091
84 1 4.39578 7.15368 7.22857 -1.43203 1.0164 -3.22092 0.412921 -4.0393 -0.495314 0.40023 -1.1831
85 1 5.79251 5.75355 5.75656 -1.95113 0.2115 -1.42556 0.0439873 -4.17136 -0.466896 -0.0981474 0.207824
86 1 7.18504 7.18044 7.14969 1.40675 2.42338 1.26878 0.121498 -4.12559 -0.385912 -0.0258885 0.218528
81 1 11.4651 5.75765 5.76331 -0.239719 2.50468 1.54326 0.295186 -3.98842 0.170753 -0.273943 0.12021
48 1 10.0915 4.40801 4.21742 0.416641 -0.352154 -1.74582 0.52008 -4.09788 -0.328903 -0.661829 0.750726
56 1 10.039 7.10075 4.41643 3.54381 2.29784 1.00272 0.426694 -4.13671 0.050438 0.00343129 -1.03232
80 1 9.92845 4.39663 7.02186 -3.92617 2.7655 -0.141382 0.512503 -4.16446 0.361139 -0.485654 0.529868
87 1 8.55097 5.8061 5.71871 -3.28587 -1.18691 -0.117115 0.153124 -4.05429 -0.17212 -0.0273087 -0.0865489
88 1 10.0457 7.08274 7.21224 -0.257531 -2.39658 0.469986 0.369853 -4.18639 -0.877182 0.20522 -0.38717
65 1 0.0616222 11.4488 5.73184 -1.18693 -4.49076 0.856762 0.230231 -4.07136 0.473115 -0.654063 -0.0307065
67 1 2.99421 11.417 5.6974 -0.101371 -1.29266 -0.0730085 0.206776 -4.03447 -0.893453 -0.0807458 0.418932
58 1 1.4652 9.88382 4.39397 -2.44787 -0.734305 -3.87714 0.341342 -4.09238 0.59217 0.637615 -0.140308
89 1 0.0878907 8.50288 5.74145 -0.72076 -0.435715 2.94845 0.148092 -4.05281 0.495693 0.0892529 0.260511
90 1 1.5989 9.99757 7.22534 4.99522 -1.95869 1.82882 0.411998 -4.10788 -1.08409 0.382187 -1.02048
91 1 2.86189 8.46094 5.75598 -1.45935 -2.33638 3.40794 0.30429 -4.0789 -0.0532855 -0.244727 0.202151
69 1 5.76544 11.4466 5.72556 -0.259332 2.20696 0.683218 0.228729 -4.06514 -0.192461 -0.950306 -1.23849
60 1 4.18773 9.97292 4.33081 2.88601 1.38403 0.166591 0.340474 -4.1329 0.803572 -0.430997 -0.366354
62 1 7.12589 10.062 4.23613 -1.53383 -0.623574 0.696798 0.288452 -4.13063 -0.0776358 -0.379927 0.346927
92 1 4.38105 10.0035 7.01267 -0.152499 -0.304678 -1.85524 0.379487 -4.17569 -0.544832 -0.0205395 0.522266
93 1 5.70941 8.58751 5.65934 0.699057 0.8482 2.90824 0.0941487 -4.1118 0.329751 -0.175182 0.255303
94 1 7.11437 9.99528 7.08498 -1.54841 0.7079 -0.345989 0.137701 -4.04917 -0.0344984 0.0667438 0.646553
71 1 8.51458 11.3755 5.74876 0.590416 3.25051 -3.77377 0.155166 -4.12424 0.696222 0.121985 -0.258295
64 1 10.068 9.90886 4.33004 3.58738 0.432382 -3.85513 0.197396 -4.06132 -0.546859 0.187093 -0.0885695
95 1 8.47135 8.5645 5.67504 -0.0583347 1.19851 1.88708 0.31227 -4.08106 0.864346 0.26683 0.524136
96 1 10.0725 9.96235 7.0904 -0.522281 0.551591 -1.99357 0.41952 -4.05027 -0.853413 0.168125 -0.163677
98 1 1.50967 1.43961 10.0456 3.99026 -0.816858 0.777077 0.206886 -4.15038 -0.0539143 0.426473 -0.605009
107 1 2.99644 2.85822 8.53011 2.35016 0.370663 0.378117 0.160442 -4.1236 -0.201208 0.123579 0.265861
13 1 5.78745 2.83015 11.4673 -3.09979 -0.00666629 -2.0122 0.320812 -4.06078 -0.267209 0.272794 -0.438271
100 1 4.40478 1.5264 9.9891 -1.60774 0.738548 -2.10478e-05 0.135429 -4.07589 -0.436007 0.179896 0.0153116
102 1 7.06392 1.44506 9.9742 -1.54004 2.22606 1.40419 0.224085 -4.0365 0.301823 0.34936 -0.237101
109 1 5.7116 2.93871 8.53044 0.794488 3.19653 4.11063 0.130854 -4.08805 0.311162 -0.148106 0.0910018
7 1 8.48751 0.160535 11.3247 -0.749372 1.75041 -2.72702 0.495489 -4.15392 0.222857 -0.22389 1.01691
105 1 11.337 2.94397 8.61816 -1.8765 -5.38149 -1.45086 0.22436 -4.07537 -0.243312 -0.728331 -0.277981
103 1 8.70405 0.131824 8.58554 0.494668 -1.29297 -0.205331 4.48058 -4.15452 -1.30872 -0.204217 -0.604493
104 1 10.0067 1.45534 10.042 0.712205 3.36634 3.68396 0.284137 -4.03143 -0.264354 0.640141 -0.0662482
111 1 8.47826 2.82444 8.49118 2.86264 0.337 -0.734285 0.31824 -4.05455 0.547334 0.348819 0.680408
19 1 2.92184 5.63328 11.3658 -1.80195 -0.0624375 0.898434 0.207723 -4.0041 -0.266375 0.897509 0.339158
106 1 1.53304 4.26229 9.93147 1.07571 -1.13296 -2.88678 0.0991019 -4.14712 0.219942 0.289689 0.152358
113 1 0.052879 5.65181 8.6308 -0.158582 -0.305869 2.67915 0.250181 -4.07189 0.0822004 0.261846 -0.26329
114 1 1.52783 7.13203 9.92113 -2.06084 0.714642 0.449804 0.0948025 -4.14835 0.30219 0.0949754 -0.132187
115 1 2.9489 5.62982 8.40137 1.20979 0.195623 -2.71856 0.846166 -4.09974 -0.461722 0.571378 1.07994
108 1 4.30422 4.35515 10.0356 -1.09685 2.52025 -2.66989 0.195326 -4.14045 0.70903 -0.639173 -0.440236
110 1 7.03531 4.36832 10.0673 3.84423 1.90302 2.25587 0.294407 -4.0867 0.201704 -0.191219 -0.586997
116 1 4.23564 7.14235 9.99474 -0.751905 -0.249818 0.29084 0.23067 -4.18073 0.0911615 -0.273412 -0.212515
117 1 5.65522 5.76865 8.55343 0.864688 0.925503 2.53118 0.161114 -4.09567 0.692077 -0.542496 0.447173
118 1 7.1171 7.10832 9.96728 -1.20823 -0.243236 -0.00351536 0.111298 -4.11813 0.284271 0.373585 -0.0414587
112 1 9.89626 4.30664 9.9059 -0.457182 -1.94161 0.729727 0.163647 -4.03904 -0.187925 -0.246367 0.460146
119 1 8.51145 5.72298 8.62763 -1.6856 1.9399 1.4692 0.155663 -4.02715 0.212034 -0.0659379 -0.349147
120 1 9.89162 7.17249 9.94234 4.8952 3.14898 2.70433 0.0982151 -4.14404 0.0735811 -0.00818029 0.118219
25 1 0.0101229 8.52083 11.2756 3.52361 -0.990908 -2.38236 0.233353 -4.05771 0.333948 0.390341 0.542752
97 1 -0.0373028 11.3753 8.68681 -0.470034 0.479728 1.54514 4.63858 -4.08845 0.948106 0.0186505 -1.26795
99 1 2.9053 11.4169 8.56449 2.14152 -3.0624 0.109617 0.104287 -4.02952 0.596925 0.0172626 0.119808
121 1 0.0328677 8.63728 8.53779 -0.921938 2.74591 0.632089 0.286991 -4.08339 0.319166 -0.414564 0.551438
122 1 1.42437 9.98741 9.90843 1.11416 -0.37883 1.80539 0.179108 -4.15031 0.871692 -0.248294 0.399209
123 1 2.97787 8.58099 8.44755 0.275345 -2.68517 0.309713 0.397608 -4.05146 -0.0793813 -0.113218 0.707814
5 1 5.71014 11.3823 11.4326 -0.915102 0.761438 -1.62468 0.134254 -4.16155 -0.428369 -0.465699 -0.151265
101 1 5.68632 11.3412 8.62224 -1.30047 -1.06077 -2.41606 0.2754 -4.12628 0.396954 0.13581 -0.358916
124 1 4.22998 10.0024 9.90182 1.73409 0.122459 -2.99928 0.218851 -4.04592 0.411034 -0.0238842 0.296217
125 1 5.65923 8.61309 8.59474 -2.76422 1.74951 -5.41333 0.242985 -4.08775 0.661831 -0.193483 -0.0906177
126 1 7.22366 9.98978 10.0327 1.03481 -0.559217 -0.0900341 0.248427 -4.02476 -0.732529 0.0804768 -0.845455
31 1 8.51398 8.64018 11.4305 -1.36516 -0.814942 -1.03516 0.16346 -4.06587 -0.0209336 -0.978974 -0.128254
127 1 8.60991 8.63377 8.51943 -1.80656 -1.81876 -2.00837 0.240687 -4.05498 -0.491605 -0.159884 0.0604741
128 1 9.84169 9.99553 10.0165 3.5113 -0.951112 -1.19801 0.320492 -4.13047 0.772313 -0.255603 0.292584
