ITEM: TIMESTEP
6750
ITEM: NUMBER OF ATOMS
128
ITEM: BOX BOUNDS pp pp pp
8.6354885302744933e-02 1.1377645114696961e+01
7.9109327314839994e-02 1.1384890672684939e+01
8.2649806139413098e-02 1.1381350193860468e+01
ITEM: ATOMS id type x y z vx vy vz c_csym c_peratom fx fy fz
2 1 1.54658 1.45733 1.47171 2.22851 -0.65924 -1.24045 0.199288 -4.05287 -0.864783 0.912917 0.40242
11 1 2.99037 2.95659 0.155762 1.85434 -2.81052 0.812484 0.333393 -4.09915 -0.271609 -0.477453 -0.735032
41 1 0.040617 2.96159 2.82842 -0.297357 1.47881 -0.585208 0.35582 -4.10217 0.566331 0.0199024 0.549596
43 1 2.95922 2.7854 2.8578 2.93369 0.954728 -4.18434 0.353041 -4.08361 -0.187926 0.719622 0.386179
4 1 4.3777 1.45624 1.53869 1.65007 1.03803 -1.60224 0.189019 -4.13278 0.13625 0.0753559 0.135185
6 1 7.14255 1.46756 1.58009 -1.93345 -1.65687 0.142304 0.0801358 -4.19301 -0.387515 0.668786 -0.382846
37 1 5.71776 0.0247735 2.93395 -1.30735 3.38248 -1.64344 0.102709 -4.06799 -0.292939 0.51343 0.512466
45 1 5.79658 2.93373 3.04107 0.104148 4.72327 -1.13675 0.376577 -4.06443 -0.654284 0.0301764 -0.321712
9 1 11.3651 3.01099 0.035786 -2.84546 -2.65591 -3.95934 0.305177 -4.11696 0.351239 -0.811619 0.5493
8 1 9.96461 1.59344 1.53689 -4.6259 4.56243 -3.73275 0.21265 -4.07186 -0.255318 -0.583417 -0.405939
15 1 8.55609 2.87058 0.0794576 0.288968 -2.02285 -0.943195 0.109143 -4.03325 -0.151124 0.532898 0.490464
47 1 8.55562 2.82022 3.01518 4.96463 1.91843 2.06444 0.383486 -4.11784 -0.517824 0.901654 -0.490015
10 1 1.58856 4.29985 1.58537 0.163008 -0.292207 -1.51823 0.414707 -4.02943 -0.0681626 0.0605434 -0.509346
17 1 0.0667125 5.59609 0.152826 -0.150087 -0.0944915 -2.25389 0.466159 -4.14653 0.407796 0.251064 -0.264837
18 1 1.48436 7.26977 1.45512 1.95943 -1.21087 -2.84925 0.545112 -4.16446 0.0585667 -0.840105 -0.306371
49 1 0.12033 5.63838 2.82405 -1.87421 0.202335 -0.412657 0.372001 -4.0687 -0.150587 0.261535 0.606173
51 1 2.94666 5.75987 2.93358 0.78125 0.688548 0.204985 0.160919 -4.10734 0.0373315 -0.186269 -0.704504
12 1 4.32644 4.29133 1.56667 3.54897 1.97352 3.18777 0.142322 -4.0189 0.26405 0.188715 -0.315229
14 1 7.13221 4.25027 1.44784 0.049393 -0.429526 0.22151 0.188034 -4.09956 -0.113906 0.512583 0.056493
20 1 4.1976 7.16356 1.33863 -1.23088 -0.789887 1.54132 0.562708 -4.027 1.00269 -0.507897 0.758604
21 1 5.68428 5.71924 -0.00928407 1.53339 -3.5878 0.0987447 0.172526 -4.06864 -0.371331 -0.414808 0.976198
22 1 7.06558 7.09314 1.48011 -1.93974 -1.26708 -0.621134 0.180046 -4.00167 0.223078 -0.452502 0.108086
53 1 5.60348 5.74661 2.93989 -0.601691 -1.85602 1.65196 0.227624 -4.12156 0.251468 0.288216 -0.119703
16 1 9.81385 4.27793 1.5084 1.24154 -3.75528 -0.947969 0.622491 -4.0828 0.385138 -0.0753413 -0.11628
23 1 8.67842 5.77998 0.0057011 0.190479 1.87382 -0.0738979 0.694702 -4.10425 -0.980035 -0.549439 0.704456
24 1 10.0869 7.07614 1.50412 -2.25412 -0.466956 2.32879 0.551053 -4.06254 -1.04412 0.239676 -0.454937
55 1 8.53148 5.75394 2.7874 -3.46463 0.528389 -0.332482 0.326343 -4.02972 0.133883 -0.0558135 0.691871
1 1 0.0128996 11.3803 0.134164 -0.371915 -0.489267 2.65238 0.172327 -4.13639 -0.152563 0.436037 -0.568597
3 1 2.88438 11.523 0.0905651 -0.683785 -0.762097 -0.00379033 0.381904 -4.05917 0.630182 -0.984321 -0.908082
35 1 2.90813 11.3071 2.74282 3.1561 -2.12569 1.23057 0.43644 -4.0298 0.129508 0.19611 0.965165
26 1 1.40405 9.99358 1.43086 0.31484 0.593512 3.49953 5.00934 -4.15648 0.634258 -0.671383 0.251932
27 1 2.92148 8.57592 0.0346697 -0.850751 -4.06444 -0.939202 0.124169 -3.98037 -0.415847 0.726678 -0.408156
59 1 2.97642 8.42773 2.90637 -0.661748 -1.90418 1.84348 0.567989 -4.0333 -0.397274 1.15219 -0.618293
28 1 4.43816 9.97891 1.4733 2.19613 1.53598 0.0954184 0.318605 -4.08449 -1.26879 -0.508442 0.0300542
29 1 5.79579 8.4942 0.0502105 0.478521 -5.85683 4.14837 0.284448 -4.16609 -0.421238 0.352101 0.406407
30 1 7.08757 10.0533 1.59111 2.99159 0.0408574 2.23032 0.243906 -4.05969 0.103835 -0.639692 -0.689322
61 1 5.661 8.5017 2.90373 -1.08797 0.612052 0.439587 0.228323 -4.15685 0.540871 0.0401147 0.127479
33 1 11.3265 11.4281 2.79237 -3.02896 2.05116 1.05882 0.282274 -4.05211 0.572527 0.26406 0.84479
39 1 8.56846 11.3737 2.94635 -1.44906 1.79477 -0.503726 0.119238 -4.19379 0.25345 0.0439227 -0.0553837
57 1 11.323 8.46196 2.86327 0.846179 -0.815887 -1.53568 0.369509 -4.00966 0.501471 0.758887 0.655297
32 1 10.037 9.93482 1.54614 0.117729 0.924822 -1.37769 0.356312 -4.07907 -0.840135 -0.127195 0.00808564
63 1 8.43266 8.54452 2.96388 2.88679 1.69048 0.57395 0.382338 -4.11428 0.634071 0.301815 -0.47806
34 1 1.4648 1.51131 4.28671 0.775917 0.0780928 3.28495 0.0842106 -4.07647 0.448088 -0.296627 -0.0516762
66 1 1.48034 1.55534 7.13479 -0.984338 0.545864 -1.62136 0.152155 -4.13105 0.124785 0.0312865 0.287405
75 1 2.98625 2.84552 5.76816 1.99616 0.446883 -2.21911 0.206471 -4.02717 -0.264403 -0.0210658 0.149906
36 1 4.28454 1.44432 4.32453 1.1812 -2.31083 3.05417 0.158575 -4.06446 0.142055 -0.0738729 0.0534625
38 1 7.14498 1.38075 4.35816 1.82501 0.541852 0.969384 0.256415 -4.12914 -0.243793 0.145943 -0.150779
68 1 4.34699 1.487 7.15499 1.42122 -2.49172 4.58208 0.0756357 -4.13482 0.383788 0.078762 -0.344417
70 1 7.24503 1.42514 7.02393 0.932206 1.7963 -0.57444 0.315932 -4.09947 -0.422854 0.282593 1.04719
77 1 5.85454 2.95568 5.74985 -0.149392 2.80271 -0.897248 0.342108 -4.08739 -0.915927 -0.403512 -0.533076
73 1 11.3535 2.93252 5.73118 -1.447 -0.0502666 1.77062 0.134963 -4.0958 0.227835 -0.0156219 0.31606
40 1 9.94992 1.56206 4.33123 0.14027 0.716987 1.25591 0.186625 -4.08079 1.32017 -1.03278 -0.0756131
72 1 10.0283 1.47505 7.19107 -1.89734 1.15309 3.90675 0.179559 -4.13893 -0.661667 0.256185 -0.579029
79 1 8.55711 2.85507 5.62423 0.953951 -3.56848 0.176388 0.310148 -4.16388 -0.321476 0.67344 0.952612
42 1 1.56818 4.28891 4.39442 1.88068 -1.26819 -1.30028 0.23023 -4.17075 -0.192358 -0.304983 -0.436847
50 1 1.50522 7.02952 4.21585 1.39139 -4.29684 1.49937 0.416536 -4.1046 -0.65354 0.851798 0.8122
74 1 1.63665 4.3208 7.18535 3.37581 -2.32471 -1.22475 0.423425 -4.12017 -1.06983 -0.601278 -0.37372
82 1 1.47025 7.26913 7.20707 -1.62645 2.17255 -1.39551 0.232273 -4.05656 -0.260885 -0.592979 0.210966
83 1 2.85748 5.76335 5.82856 -0.588985 3.40928 0.56365 0.23066 -4.09134 0.460776 0.800319 -0.323809
44 1 4.19175 4.35586 4.40081 -4.30787 3.16764 -1.90031 0.457103 -4.09172 0.659837 -0.436046 -0.163127
46 1 7.15265 4.44266 4.30316 0.350157 3.57061 2.23537 0.286377 -4.06157 0.283488 -0.276589 0.0190812
52 1 4.27164 7.24105 4.38925 1.90875 -0.593439 1.03651 0.297545 -4.05315 0.139556 -0.840703 0.196556
54 1 7.15006 7.06346 4.34122 0.969231 1.62009 -2.2473 0.281915 -4.06651 0.305691 0.590652 0.006119
76 1 4.33373 4.30519 7.20193 1.24791 -1.57873 0.823144 0.172236 -4.1836 0.00900707 0.365467 -0.656197
78 1 7.15665 4.34833 7.09745 0.628283 -1.62064 -1.24485 0.102258 -4.04284 0.402769 0.787244 -0.474527
84 1 4.38773 7.19962 7.22642 1.62633 -0.0414529 -0.893088 0.228753 -4.09995 -0.268322 -0.112684 -0.428606
85 1 5.67429 5.86331 5.70191 -0.50065 0.711853 0.178063 0.329057 -4.07928 -0.0554903 -1.23277 0.581092
86 1 7.22705 7.16144 7.15367 2.41368 0.295886 1.69578 0.17574 -4.08276 -0.180798 0.180554 -0.541523
81 1 11.3379 5.73722 5.7854 2.2001 -0.581037 1.0348 0.204837 -4.06374 0.770767 0.317548 0.0282219
48 1 10.0635 4.35594 4.38512 2.18446 1.79201 1.7487 0.44885 -4.07996 -0.91572 0.236852 -0.949064
56 1 9.88673 7.14487 4.27223 1.43846 0.309142 -0.754296 0.216875 -4.06856 0.71205 -0.191899 0.191122
80 1 9.87116 4.24972 7.10249 -3.29917 0.543473 1.8932 0.254755 -4.06028 0.776219 0.999359 -0.622128
87 1 8.58133 5.7861 5.7882 0.484217 0.077632 0.893561 0.195513 -4.06931 0.0431829 -0.271981 -0.210358
88 1 9.97022 7.15827 7.20675 2.21234 1.84109 0.421183 0.140867 -4.06009 -0.211103 0.120669 -0.0410036
65 1 0.128752 11.4185 5.79578 -0.901567 4.07201 -3.49292 0.230364 -4.07849 -0.148281 -0.400357 -0.504011
67 1 2.90746 11.3128 5.7989 4.61683 -4.43142 2.15632 0.199806 -4.07835 -0.373019 0.104582 -0.340907
58 1 1.56446 9.82809 4.1906 -1.88253 -1.4501 1.59894 0.589589 -4.03202 -0.560972 0.982427 0.178773
89 1 0.152698 8.60922 5.74765 0.490435 -3.23435 -2.80871 0.280708 -4.08578 -0.737639 -0.806191 -0.521932
90 1 1.36471 9.97896 7.18407 -2.6166 -0.47887 4.6826 0.28259 -4.06342 0.825529 0.499219 -0.112102
91 1 2.80522 8.56367 5.79082 -1.87479 2.27388 -0.561406 0.383196 -4.14066 0.560789 -0.0833889 -0.267489
69 1 5.70552 11.3452 5.7932 -3.22326 -1.30056 -1.18175 0.174778 -4.06404 -0.571939 0.889698 -0.513271
60 1 4.27727 9.95517 4.37171 2.81313 0.799553 -2.04875 0.184509 -4.11728 0.330585 0.0803549 -0.226956
62 1 7.13204 10.0281 4.46715 2.7949 -2.55402 -1.88172 5.18968 -4.10195 -0.0453132 -0.403532 -1.01308
92 1 4.43229 9.88367 7.16825 1.10057 -0.662346 -4.28471 0.351606 -4.14375 -0.584343 -0.0799373 -0.232174
93 1 5.808 8.49458 5.68929 -5.43117 2.06186 -1.92984 0.374384 -4.1024 -0.294347 0.283861 0.25894
94 1 7.10814 10.0313 7.04105 -3.4753 -1.43694 1.10583 5.05876 -4.08752 1.20698 -0.943702 1.01119
71 1 8.64774 11.4278 5.70759 -1.96614 1.20227 -3.75211 0.25503 -4.12792 0.26692 -0.489732 -0.128823
64 1 10.0775 10.0393 4.2611 0.619716 1.74836 0.901823 0.318468 -4.03514 -0.298404 -0.355357 0.165537
95 1 8.6732 8.65137 5.68427 -2.54171 3.56081 -1.19391 0.47446 -4.06251 -0.477137 -0.500137 0.20567
96 1 9.97138 9.96595 7.18802 1.41528 -0.0525815 -1.32732 0.0931875 -4.10085 -0.493109 0.032283 -0.0951389
98 1 1.40824 1.4786 9.92891 -1.06359 3.09569 0.614495 0.246726 -3.99574 0.555937 0.398113 -0.105691
107 1 3.02716 2.85963 8.55428 -1.91425 -1.78765 -2.33154 0.240528 -4.01755 -0.891276 0.116748 0.0910539
13 1 5.65055 2.86658 11.3975 3.59687 3.46096 0.883679 0.271234 -4.01547 -0.192731 0.0145497 -0.0218295
100 1 4.39715 1.46264 9.83173 -1.66002 1.116 -1.46862 0.353414 -4.05495 -0.23143 0.0543658 0.556119
102 1 7.14055 1.56305 10.0355 -0.566895 -0.0956844 -0.265487 0.237791 -4.12511 -0.1464 -0.795583 -0.641657
109 1 5.86361 2.96494 8.39816 -2.23361 0.843128 2.19788 0.61654 -4.04193 -0.473126 -1.01131 0.964012
7 1 8.53723 0.115555 11.5658 -1.01528 1.22007 -2.0726 0.30378 -4.11041 0.238857 -0.43917 -0.675317
105 1 11.3248 2.96043 8.49244 -3.95423 2.14248 0.81759 0.198041 -4.08687 0.267514 -0.135136 0.388082
103 1 8.5944 0.0323237 8.60889 -3.97868 1.19683 -3.4817 0.275846 -3.99587 -0.858584 0.125773 -0.429077
104 1 9.78726 1.55256 9.93393 1.82138 -3.25293 -2.60265 0.486102 -4.07833 1.39103 -0.367895 0.0810766
111 1 8.58246 2.96491 8.45149 1.08616 -1.78777 -0.840251 0.357493 -4.09607 -1.00453 -0.856767 0.774105
19 1 2.90643 5.74217 11.2953 -0.148368 1.38918 1.81282 0.151081 -4.06858 0.0737533 -0.539974 0.445945
106 1 1.5873 4.29552 9.93727 4.528 -1.45592 1.59217 0.234548 -4.03666 -0.199837 0.166986 -0.444643
113 1 0.0565264 5.67293 8.451 -4.5743 2.56171 1.14504 0.361708 -4.10122 0.216918 -0.0798159 0.677116
114 1 1.41982 7.11733 9.9982 -2.14374 -1.22769 2.36456 0.238824 -4.12877 0.115008 0.236352 -0.337223
115 1 2.89594 5.81153 8.48412 3.70299 -2.08045 5.05119 0.239692 -4.07418 0.133996 0.0004395 0.535646
108 1 4.39109 4.35966 9.78677 2.73867 -2.77275 0.47589 4.66627 -4.13642 -0.21646 -0.267885 0.92147
110 1 7.10488 4.23269 10.0192 0.937406 -0.846725 -1.46183 0.521498 -4.18124 0.339875 0.287007 -0.0186553
116 1 4.323 7.18191 9.87227 -3.83098 1.36704 0.778545 0.103873 -4.17499 -0.0559158 0.0103434 0.408215
117 1 5.82557 5.76812 8.55048 0.579694 0.215327 1.5717 0.234441 -4.16937 -0.0977631 -0.113755 -0.27434
118 1 7.12505 7.03206 10.0641 0.59064 0.805832 1.91075 0.359434 -4.02953 0.537044 0.669213 -0.593379
112 1 9.96092 4.27818 9.91364 -0.882822 1.15878 0.375338 0.0873571 -4.11395 -0.204085 0.161536 0.191865
119 1 8.47785 5.64619 8.64432 2.55302 -0.343596 2.07794 0.297736 -4.17585 0.595591 0.364006 -0.497748
120 1 10.0309 7.0731 9.95009 1.26437 2.24117 -4.31223 0.399014 -4.01678 0.0590756 0.674966 -0.129735
25 1 -0.0263463 8.64206 11.2951 -2.42001 -1.4806 -2.33716 0.433168 -4.04123 0.659632 -0.691616 0.370469
97 1 0.0141213 11.411 8.57668 -0.648221 3.19994 0.858383 0.0738509 -4.14875 0.26232 -0.0598746 0.0543807
99 1 2.87114 11.3629 8.40122 0.958517 -0.693596 0.452886 0.334297 -4.11822 0.276836 -0.0524068 0.710568
121 1 0.0437391 8.69692 8.59779 -3.45408 -0.32002 -3.06067 0.289675 -4.11079 -0.150119 -1.03827 -0.108876
122 1 1.43835 10.0472 9.86716 1.42477 -0.700053 -0.154243 0.220646 -4.06489 0.565525 -0.0173793 1.26354
123 1 2.88541 8.61352 8.56872 0.558046 -3.79194 0.227853 0.0898468 -4.10378 -0.169869 -0.0596291 0.0171924
5 1 5.69629 11.4006 11.4222 0.769113 -1.57554 0.647415 0.0946583 -4.05739 0.454848 0.173489 -0.214929
101 1 5.75139 11.3168 8.4715 -0.5478 -0.835555 -0.499164 0.28312 -4.007 0.290398 0.587744 0.617728
124 1 4.36139 10.0058 9.976 -3.0597 -1.35277 -2.93517 0.132229 -4.09582 -0.183654 0.126355 -0.15436
125 1 5.85146 8.54563 8.59948 1.08639 -1.63805 -1.33354 0.32687 -4.13372 -0.177228 0.222085 0.150459
126 1 7.10435 10.0175 10.1119 1.02587 0.619734 4.3339 0.303425 -4.04898 0.295744 0.225226 -0.598944
31 1 8.48248 8.56601 11.5274 -1.84896 -0.628876 -2.8293 0.282984 -4.16069 0.462649 -0.342633 -0.63023
127 1 8.48553 8.48577 8.6575 -4.47917 1.09887 1.20239 0.287948 -4.08523 0.214549 0.643582 -0.102571
128 1 9.87148 9.99903 10.05 0.707847 0.956636 0.2309 0.109641 -4.04411 0.0570475 0.223564 -0.364617
