ITEM: TIMESTEP
10000
ITEM: NUMBER OF ATOMS
128
ITEM: BOX BOUNDS pp pp pp
1.0375565902512385e-01 1.1360244340974610e+01
8.6903183957405261e-02 1.1377096816042483e+01
8.2649622535544184e-02 1.1381350377464337e+01
ITEM: ATOMS id type x y z vx vy vz c_csym c_peratom fx fy fz
2 1 1.48989 1.42915 1.65965 -2.06878 1.83774 5.62703 5.32341 -4.06702 0.21467 0.580184 -1.3377
11 1 2.92409 2.94495 0.020873 -0.44899 -1.38999 -1.70686 0.206986 -4.06169 -0.119913 -0.230688 0.589332
41 1 0.032256 2.99051 2.93288 0.363625 -0.0261459 -0.390839 0.337474 -4.07666 0.260275 -1.08126 0.545362
43 1 2.97457 2.87248 2.92939 2.85225 0.192342 -2.64638 0.124047 -4.11906 -0.186093 0.0998842 -0.135277
4 1 4.33972 1.44744 1.41171 2.75204 -1.92537 -4.05523 0.159682 -4.04707 -0.724508 0.76219 0.563865
6 1 7.18769 1.61134 1.40874 2.41249 0.444423 -4.2933 0.277308 -4.03802 -0.229809 -0.894176 -0.471741
37 1 5.81991 0.156396 2.79107 1.45192 -3.69098 -3.43666 0.25471 -4.17722 0.0632789 -0.00810031 0.350996
45 1 5.76057 2.87255 2.84669 -1.98994 -1.88275 0.714507 0.141046 -4.17723 0.186825 0.395719 0.279455
9 1 11.4287 2.91793 0.0820891 -2.45926 0.919576 2.80328 0.246376 -4.09333 -0.043854 -0.18616 0.0736017
8 1 9.87006 1.47608 1.47314 1.69116 -0.849506 -2.739 0.155525 -4.0814 0.801261 0.399861 -0.0734255
15 1 8.53649 2.99057 0.0390705 2.5225 0.115362 0.356839 0.0852325 -4.06236 -0.0697541 -0.455963 -0.0179227
47 1 8.42575 2.9063 2.88544 0.29781 -1.61857 -0.466978 0.306994 -4.1271 0.543494 0.0850399 0.892827
10 1 1.49142 4.27758 1.60697 -1.02112 3.74541 2.76446 0.154561 -4.04025 0.459711 -0.0427681 -0.168384
17 1 0.0934029 5.65129 0.290511 2.73755 -0.508359 -2.21714 0.562474 -4.10252 -0.159283 0.109925 -1.48274
18 1 1.32395 7.10238 1.61991 2.72551 -3.14681 1.03547 0.62828 -4.03148 1.53837 0.00386439 0.0208195
49 1 0.00825279 5.69873 2.95583 0.320734 0.0392633 -0.0131926 0.131987 -4.16921 0.540255 -0.835722 0.415527
51 1 2.89981 5.74741 2.99784 3.06685 3.33559 -2.96703 0.129357 -4.18755 -0.0656577 0.0199011 -0.626602
12 1 4.29842 4.36567 1.49595 -1.24271 -0.0340032 2.71259 0.0785523 -4.0002 0.453499 -0.416039 0.215886
14 1 7.15648 4.36019 1.41076 -0.908017 -0.960872 0.414455 0.0699518 -4.0706 -0.152134 0.0653526 0.167382
20 1 4.33921 7.15049 1.49648 -1.08542 -2.18419 6.73423 0.127003 -4.01472 0.73087 -0.42818 0.811968
21 1 5.77181 5.815 0.0127373 -0.493399 -2.67758 0.977103 0.140442 -4.14706 0.132046 -0.644097 1.1179
22 1 7.20542 7.21637 1.53411 -0.855856 0.197739 3.1965 0.256677 -4.11595 -0.154558 -0.475388 -0.291006
53 1 5.72397 5.67682 2.9067 -5.52515 1.77991 0.0120764 0.166517 -4.09756 0.0604171 0.476195 -0.163477
16 1 9.88584 4.14776 1.52957 -2.05184 -0.303619 1.89523 0.673182 -4.07405 -0.0301516 1.60331 -0.241056
23 1 8.58315 5.76496 0.0742914 3.35157 -0.748025 -0.921256 0.126995 -4.10583 0.039218 0.0116508 0.129369
24 1 10.0057 7.12598 1.67516 0.417779 1.26449 0.841239 0.41826 -4.08922 -1.11384 0.861114 -1.54072
55 1 8.54174 5.77546 2.88406 -2.651 0.490096 3.62721 0.166991 -4.06135 -0.0288496 -0.669677 0.168663
1 1 0.0254816 11.3978 0.023715 1.31215 -0.458482 -2.98364 0.382669 -4.04809 0.591541 0.199629 1.03166
3 1 2.9119 11.2848 0.154018 -0.310391 -0.39164 -0.806737 0.2084 -4.04693 0.301109 0.267328 -0.160156
35 1 2.96918 11.3488 2.89371 -1.26495 1.90278 -1.01758 0.0630016 -4.12608 0.154487 0.113488 0.23968
26 1 1.4977 9.93585 1.58281 3.16555 -0.915087 1.31147 0.105999 -4.11209 -0.0529694 0.425561 -0.275646
27 1 2.90544 8.39746 0.178672 2.289 2.12192 -0.75782 0.543599 -4.07784 -0.314016 1.09191 -0.588436
59 1 2.97224 8.47834 2.90916 -1.39181 -0.823401 -0.28106 0.169915 -4.15036 0.0844426 0.522654 -0.221435
28 1 4.43682 10.0171 1.49645 1.4755 -0.173654 0.067061 0.276149 -4.09736 -0.379745 -0.514947 -0.080634
29 1 5.67714 8.4535 0.0754483 5.0749 -0.489308 0.960522 0.292556 -4.08686 0.460288 0.626084 -0.031389
30 1 7.17795 9.89155 1.39487 -2.53945 -3.75654 1.18999 0.348453 -4.13084 -0.210902 0.561189 0.129262
61 1 5.81589 8.54091 2.8814 -1.58834 0.901462 -0.198821 0.10245 -4.05375 -0.426351 0.120823 0.281962
33 1 11.377 11.4137 3.00379 -0.728723 0.63395 0.0961825 0.253422 -3.96375 -1.24372 -1.09936 -0.784683
39 1 8.52189 11.4675 2.88369 -4.52428 -0.67702 1.791 0.218271 -4.07995 0.0562512 -0.614091 0.138256
57 1 11.3314 8.52795 2.95818 -2.11587 0.189573 -0.469622 0.0782724 -4.07723 0.113607 0.549085 0.453858
32 1 9.94608 9.8754 1.51991 0.252245 -1.25887 4.89048 0.248684 -4.14474 0.148267 0.620139 0.0870905
63 1 8.52845 8.68929 2.98366 0.93804 1.40649 -1.42534 0.418547 -4.01388 -0.118994 -0.802389 -0.586742
34 1 1.43383 1.47418 4.29725 -2.84524 -2.86658 1.03759 0.233692 -4.07418 0.977269 0.581941 0.421862
66 1 1.4697 1.52164 7.3047 -3.30902 1.44976 -1.98027 0.617645 -4.01802 0.734034 -0.581682 -1.061
75 1 2.90824 2.88607 5.71497 0.255849 -1.01376 2.63811 0.125378 -4.11458 -0.287336 0.0538821 -0.0658425
36 1 4.3713 1.47976 4.22319 -1.27385 0.0946787 -0.738354 0.072039 -4.08093 0.11391 -0.040006 0.18509
38 1 7.1505 1.47116 4.43699 -2.40077 0.624728 0.472015 0.459626 -4.04342 0.00678597 -0.247122 -1.05272
68 1 4.30998 1.6058 7.06964 -2.43477 2.84817 -3.49776 0.316151 -4.10121 0.391341 -0.908735 0.430456
70 1 7.02413 1.52875 7.16662 0.954179 1.12362 -2.43102 0.337143 -4.16838 0.753452 -0.00654131 -0.0202046
77 1 5.78046 2.89292 5.6385 1.88033 -1.7823 1.04072 0.361644 -4.0703 -0.828825 0.447344 0.231952
73 1 11.3707 2.89187 5.78408 0.305286 0.265021 -1.43608 0.13998 -4.11348 0.0826876 0.22908 0.0813799
40 1 9.95245 1.51776 4.39094 3.05814 4.10602 -0.104177 0.0673111 -4.10677 -0.0033459 -0.270839 -0.571457
72 1 9.86365 1.479 7.18259 1.06922 1.23062 2.57661 0.193509 -4.12856 0.812921 0.196779 -0.209573
79 1 8.55502 2.84114 5.68724 -0.615994 2.1142 -2.5812 0.309937 -4.0787 -0.552287 0.78475 0.715498
42 1 1.54159 4.31273 4.32489 5.78184 0.178646 -1.28553 0.098284 -4.07578 -0.40646 -0.225796 -0.142229
50 1 1.46602 7.17569 4.28643 0.0052305 -1.23575 -0.133529 0.114722 -4.14493 0.116292 -0.456321 0.306556
74 1 1.5643 4.44366 7.11502 2.44261 0.207424 -1.51864 0.264207 -4.08568 -0.649826 -0.460305 -0.0665139
82 1 1.4667 7.1172 7.11228 1.30596 1.0469 -2.22763 0.0694718 -4.15589 0.12484 0.35037 0.240205
83 1 2.90913 5.68547 5.67945 0.815996 0.615203 -0.808789 0.101905 -4.11056 0.125365 0.658358 -0.220646
44 1 4.33099 4.31847 4.33718 -1.82614 -2.71569 -1.00633 0.0509951 -4.10635 0.0391795 -0.157625 -0.123053
46 1 7.19591 4.43502 4.32011 -0.784825 -0.171485 -0.268476 0.469857 -4.07859 -0.300022 -0.67455 0.0490168
52 1 4.34539 7.1222 4.32404 -0.485435 -0.111222 -2.88443 0.0543914 -4.09806 0.173134 -0.0250423 0.0376117
54 1 7.12559 7.17224 4.348 0.462633 1.69015 -1.65386 0.0658426 -4.17395 0.261549 -0.367727 -0.110819
76 1 4.33313 4.35888 7.13712 -1.38046 -0.913977 2.74049 0.103831 -4.21626 -0.0925824 -0.398809 0.0790022
78 1 6.97025 4.18387 7.20902 2.28348 0.517548 -0.599008 0.766914 -4.1742 1.06769 0.617826 -0.419953
84 1 4.31843 7.09962 7.07309 -0.970349 0.146881 -3.05096 0.111699 -4.16104 0.0122481 -0.00322955 0.339346
85 1 5.7201 5.6609 5.74609 -0.448411 0.218678 2.43914 0.137553 -4.01161 -0.16248 0.173552 -0.676179
86 1 7.09146 6.99809 7.03266 -0.446809 -0.329028 -0.494564 0.528585 -4.05131 -0.0361608 1.08534 1.05615
81 1 11.3057 5.79419 5.59125 -2.0048 -0.213452 -6.06364 4.94281 -4.04313 0.261696 -0.733664 1.22171
48 1 9.89398 4.3254 4.39319 -2.40835 2.2391 0.150673 0.169844 -4.07991 -0.0168276 -0.336132 -0.510431
56 1 9.88744 7.13776 4.32936 -1.02944 -1.39864 1.97427 0.144332 -4.20958 -0.483599 0.626228 0.247695
80 1 9.87061 4.21483 7.14312 -0.569801 -0.90664 -3.29601 0.449538 -3.9671 1.62261 1.23796 -0.500578
87 1 8.56736 5.66301 5.85199 1.18447 -1.79512 2.54215 0.546862 -4.02787 -0.0672929 0.19445 -0.518013
88 1 10.0018 7.32538 7.09725 0.213491 2.20336 -0.117834 0.696504 -4.03464 -0.271109 -1.41431 0.635458
65 1 0.130877 11.3795 5.80809 3.86141 0.620715 -0.789441 0.141368 -4.03781 0.0692432 0.0236871 -0.496559
67 1 3.01283 11.3957 5.59359 -0.829985 -2.88621 1.41726 5.30899 -4.0542 -0.78206 0.0885964 0.735096
58 1 1.5802 9.93234 4.22352 -1.54241 0.411922 -0.425231 0.247227 -4.10815 -0.499767 0.321186 0.618368
89 1 0.142031 8.54244 5.73135 2.00859 3.52177 -3.60919 0.107504 -4.0604 0.0813081 0.519374 -0.732104
90 1 1.51572 9.96342 7.10282 -2.86788 0.71015 -0.495731 0.118458 -4.0865 0.0261119 0.0105425 0.640479
91 1 2.82335 8.53726 5.69226 1.86565 -0.0575114 -1.91855 0.220869 -4.08098 0.880905 0.215336 0.0302214
69 1 5.73388 11.4084 5.74159 0.179684 2.60319 -1.22091 0.0853428 -4.14426 -0.232655 -0.224458 0.176872
60 1 4.46859 10.024 4.26692 -0.896509 -1.60837 6.23707 0.312748 -4.05876 -0.619735 -0.628506 -0.0190765
62 1 7.1815 10.0665 4.31231 -1.24881 1.11907 -2.45017 0.150878 -4.10268 -0.805569 -0.643691 -0.181699
92 1 4.27402 9.94361 7.13693 5.13472 2.57284 0.627513 0.162587 -4.06459 0.469497 -0.240503 -0.652968
93 1 5.70178 8.53589 5.67836 -0.265063 0.953765 1.53627 0.0857736 -4.0766 0.255399 0.357076 0.217504
94 1 7.0325 9.93045 7.16355 -4.72772 -1.57433 0.14711 0.169495 -4.04509 0.427331 0.326476 -0.478287
71 1 8.49055 11.3223 5.77666 2.01219 -0.609363 1.03193 0.104953 -4.15173 0.332596 0.473456 0.216893
64 1 9.92093 9.92303 4.37237 -1.00263 -1.79723 3.39756 0.145275 -4.1246 0.499467 0.821729 0.110773
95 1 8.46322 8.61545 5.80492 -1.8613 -0.287043 3.57968 0.399723 -4.12389 0.204987 -0.37447 -0.280708
96 1 10.02 9.95592 7.10794 1.5393 2.16776 2.19029 0.237831 -4.09913 0.00834505 0.216817 0.378081
98 1 1.58073 1.38617 10.0241 -2.33405 0.69278 -2.39556 0.434718 -4.10664 -0.0910049 0.587527 -0.376408
107 1 2.92272 2.9839 8.47246 2.53582 1.88917 0.245755 0.228973 -4.08986 -0.139362 -0.0372552 0.692013
13 1 5.69998 2.95766 11.3187 2.1904 -1.41081 3.48017 0.113083 -4.16797 -0.209407 -0.0941019 0.0766221
100 1 4.21424 1.46824 9.86326 3.63233 2.5022 -3.21914 0.457989 -4.03596 0.144838 -0.0384747 0.80676
102 1 7.25243 1.60432 9.89845 2.4385 1.28614 1.28897 0.522768 -4.04139 -0.481273 -0.862703 0.427277
109 1 5.66525 2.84996 8.66248 0.983187 0.693191 -1.14252 0.661452 -4.06814 -0.13032 0.544053 -0.211739
7 1 8.58744 -0.0330143 11.314 -2.93313 2.40029 2.50073 0.354688 -4.03246 -0.228589 0.900709 0.0527082
105 1 11.4846 2.9872 8.58496 0.379581 -0.433602 -1.19696 0.499413 -4.07757 -0.917477 -0.226408 0.130516
103 1 8.5239 0.0514757 8.49604 -2.59284 2.16843 1.88623 0.201641 -4.1168 0.0303924 -0.346247 0.619277
104 1 9.93952 1.65508 9.90943 2.24952 -0.96362 -1.06951 0.42131 -4.13476 -0.0325442 -0.69279 0.200597
111 1 8.56334 2.9589 8.47917 0.191777 -1.78217 1.50569 0.186502 -4.00868 -0.79867 -0.466108 0.911208
19 1 2.92719 5.76671 11.566 -0.178941 3.88642 -4.11944 0.582528 -4.10395 -0.919501 0.128605 -1.31024
106 1 1.55043 4.35221 9.9356 0.263801 -0.0564252 0.467602 0.155022 -4.05032 0.119663 0.646932 0.465044
113 1 0.0536409 5.75308 8.6171 -1.45293 2.46555 -3.11469 0.261056 -4.03316 -0.147638 -0.295888 -1.03084
114 1 1.47842 7.1482 9.88174 -2.32865 1.1924 5.90591 0.582685 -4.01207 0.190011 -0.450463 1.02413
115 1 2.87649 5.81584 8.48676 -2.05651 0.816615 -2.1575 0.136048 -4.04896 0.430407 -0.24613 0.468781
108 1 4.31363 4.50558 9.9686 0.845659 -2.71809 -0.77829 0.531763 -4.06841 -0.789534 -1.26428 0.342476
110 1 7.17283 4.3884 9.94195 -1.58557 -4.07435 -0.514479 0.108564 -4.19178 0.146378 -0.551456 0.0270115
116 1 4.37247 7.09118 9.97032 -0.726316 -0.805774 -2.42513 0.146164 -4.12153 -0.715711 0.379184 -0.376874
117 1 5.73328 5.69311 8.6393 -2.65721 -1.72826 5.97966 0.285046 -4.04934 0.385669 0.809118 -1.43845
118 1 7.09617 7.14565 9.90238 -2.69726 -1.74378 1.30614 0.112885 -4.11776 0.406505 0.201266 0.166872
112 1 9.95589 4.37346 9.96745 -0.111267 -3.02835 -1.34614 0.0776581 -4.10768 -0.0360254 -0.437534 0.16718
119 1 8.5414 5.74046 8.53489 0.081366 -0.471576 1.8249 0.170704 -4.10291 0.1635 0.379956 -0.102727
120 1 10.0205 7.14047 10.0266 -0.241734 -1.74519 0.28081 0.0910015 -4.00909 0.166268 -0.0405713 -0.396689
25 1 0.196644 8.57579 11.4774 0.675986 -2.44905 -2.75488 0.248036 -4.10345 -0.471203 -0.299388 -0.65655
97 1 0.0831212 11.4279 8.6604 1.39172 3.00917 1.61863 0.259618 -4.08249 -0.110115 -0.19644 -0.644363
99 1 3.00587 11.3031 8.49839 -3.29371 -1.47414 -2.28515 0.37717 -4.04549 -0.703536 0.71679 0.124211
121 1 0.120577 8.57856 8.61207 2.14948 -0.556953 -0.733076 0.157293 -4.07614 0.156216 0.19314 -0.575628
122 1 1.54169 10.0409 9.99188 2.22083 -1.20789 1.18583 0.249251 -4.10776 0.180147 -0.780046 -0.192191
123 1 2.99104 8.51375 8.59002 -0.920311 -0.305654 1.86982 0.1764 -4.06072 -0.578324 0.177815 -0.253604
5 1 5.70092 11.5058 11.3348 -0.401793 -2.90677 -1.13115 0.511999 -4.06227 1.03602 -0.677928 -0.690262
101 1 5.72859 11.3409 8.5571 0.0687768 1.94153 -1.13428 0.098445 -4.1155 0.0597573 0.256736 0.146335
124 1 4.39502 9.89745 9.93751 -1.14523 0.187385 0.840959 0.154155 -4.08694 -0.513408 0.0529112 0.634055
125 1 5.72005 8.49892 8.4466 -3.02967 1.85986 -1.90619 0.147105 -4.14715 -0.0154342 -0.17852 0.474544
126 1 7.18206 9.84795 9.98764 0.682885 3.67978 0.0271214 0.328818 -4.02357 -0.733653 0.411316 -0.00302449
31 1 8.61604 8.46753 11.2962 -0.0973834 -1.07191 0.64946 0.33891 -4.05422 -0.0702957 0.29219 0.738775
127 1 8.51303 8.58181 8.48403 3.73053 -4.40888 -0.979782 0.17247 -4.13705 0.296833 -0.398258 0.329932
128 1 10.0613 9.95968 9.99028 1.72296 0.716825 2.62589 0.226353 -4.06598 -1.02292 -0.46239 -0.484946
