ITEM: TIMESTEP
2500
ITEM: NUMBER OF ATOMS
128
ITEM: BOX BOUNDS pp pp pp
9.6720342197126996e-02 1.1367279657802698e+01
9.7012658679998864e-02 1.1366987341319911e+01
8.2650046236780128e-02 1.1381349953763101e+01
ITEM: ATOMS id type x y z vx vy vz c_csym c_peratom fx fy fz
2 1 1.59035 1.37165 1.48517 -2.01754 0.492761 2.31499 0.510706 -4.04035 -0.566672 0.647107 -0.320994
11 1 2.89346 2.97957 0.0199098 1.415 -0.745035 -4.44367 0.233363 -4.15455 0.239923 -0.928448 0.738933
41 1 0.186145 2.89822 3.02258 -0.520725 2.38862 4.62974 0.521858 -4.08779 -0.259779 0.191164 -0.940334
43 1 2.85316 2.93563 2.847 -0.592731 -2.50559 -0.503516 0.246193 -4.13897 0.25888 0.108263 0.0771542
4 1 4.29912 1.46459 1.49714 -1.02898 0.854831 0.585053 0.147696 -4.11147 0.219321 0.716068 -0.155818
6 1 7.0633 1.47775 1.54254 -4.95434 4.77034 1.35604 0.212204 -4.16485 0.923143 0.728029 0.432058
37 1 5.59355 0.0770592 2.94062 -2.89968 1.72561 2.29947 0.428503 -4.08221 0.646253 -0.611625 -0.772882
45 1 5.76091 2.92394 2.95364 0.527388 5.21651 2.86406 0.245346 -4.04526 -0.528304 0.433831 -0.28381
9 1 11.4859 2.88219 0.143579 1.38919 1.54737 -1.56184 0.392883 -4.12003 -0.529624 0.0137832 -0.19064
8 1 9.90736 1.49571 1.53374 3.13801 -1.23409 0.337713 0.134184 -4.10335 0.276891 0.5256 -0.220091
15 1 8.46802 2.89283 0.0351829 -2.39058 -2.55934 -1.09939 0.221718 -4.08911 -0.355637 -0.274841 0.417976
47 1 8.54767 2.9587 2.92017 1.9297 1.57423 -0.820327 0.198352 -4.08228 -0.349051 -0.395752 0.133143
10 1 1.48602 4.43786 1.49031 1.59455 0.111252 -0.619114 0.405079 -4.03298 0.333522 -0.684778 0.0835308
17 1 0.0904242 5.6572 -0.016592 -4.63709 -0.466003 1.25029 0.189604 -4.05952 0.124602 0.00169066 0.305945
18 1 1.54969 7.07084 1.46025 2.02209 -2.63728 -1.00992 0.139837 -4.113 -0.536681 0.702018 -0.0676993
49 1 0.104682 5.649 2.91047 2.64758 -2.16765 2.05014 0.173626 -4.05135 0.152836 0.620969 -0.147127
51 1 2.9452 5.79198 2.90581 -1.48886 0.805962 3.58662 0.142659 -4.14003 0.442981 -0.34942 -0.0713161
12 1 4.31385 4.30184 1.40043 -0.29239 2.32896 3.50061 0.263064 -4.02614 0.407134 -0.300834 0.994977
14 1 7.13476 4.27787 1.57646 2.79645 -2.85716 -1.40907 0.202338 -4.09075 -0.0953687 0.338369 -0.571348
20 1 4.31712 7.13254 1.42397 1.47494 -1.25725 2.45347 0.191756 -4.06119 -0.144819 0.20905 0.451982
21 1 5.77065 5.82405 0.123278 0.902635 1.03576 2.23693 0.337969 -4.11919 -0.164003 -0.6838 0.0230621
22 1 7.06451 7.14483 1.64473 -0.948662 -2.19501 -0.900737 0.409279 -4.0188 0.0202148 0.115803 -0.627577
53 1 5.6325 5.69154 2.93176 1.49349 -0.99755 0.725774 0.243143 -4.09709 0.24716 0.230362 0.331558
16 1 9.83833 4.26747 1.4431 1.93806 0.246465 0.478788 0.334691 -4.1283 0.824154 0.306759 0.223223
23 1 8.42002 5.732 0.116036 -1.21081 0.686084 -0.664092 0.289722 -4.0953 0.270015 0.372626 -0.074436
24 1 10.0044 7.05237 1.41084 3.94128 0.415516 2.21318 0.338103 -4.1307 -0.0762364 -0.0208957 0.395404
55 1 8.50446 5.72298 2.90549 1.3655 -2.3353 -3.32179 0.0708945 -4.14186 -0.222812 0.0209649 0.0731455
1 1 0.0755646 11.3913 0.0776644 -3.63528 -0.298306 1.4981 0.112748 -4.09356 0.138818 -0.265434 0.334543
3 1 2.99794 11.4205 0.00305815 -3.83781 -2.70413 0.118206 0.244436 -4.06101 -0.356547 -0.369045 0.13076
35 1 2.90293 11.4253 2.95453 0.416607 2.83376 -0.656085 0.226447 -4.0871 0.636995 -0.447343 0.0654174
26 1 1.50055 9.96506 1.52171 -0.124163 3.54394 -0.977352 0.0971548 -4.08293 0.547795 -0.303239 -0.406157
27 1 2.9771 8.48611 -0.0139456 0.236438 -2.49013 0.229325 0.206917 -4.08076 -0.327959 0.384257 0.164349
59 1 3.01965 8.45857 2.91294 -0.0746904 -2.58939 -1.62084 0.36664 -4.07026 -0.587642 0.678531 -0.302333
28 1 4.24853 9.95806 1.46974 -2.31619 -1.3569 1.38315 0.259564 -4.08849 0.0680189 0.260297 0.260051
29 1 5.64337 8.62799 0.118499 -0.553682 1.08684 0.996877 0.39516 -4.13611 0.85184 -0.554121 -0.208025
30 1 7.23994 9.85753 1.55335 0.835627 -5.55819 -2.8385 4.63818 -4.12873 -0.645185 0.685065 0.154785
61 1 5.61779 8.53572 2.94275 -3.37777 -5.92268 2.46878 0.368942 -4.09824 0.600161 -0.30601 -0.713036
33 1 11.3301 11.3352 2.92046 1.70008 -2.2693 -0.394965 0.069912 -4.16313 0.0560651 0.494667 -0.128369
39 1 8.58376 11.3558 2.89183 2.25599 2.49482 -3.143 0.141524 -4.00911 -0.47623 0.18307 0.0872535
57 1 11.3698 8.50985 2.92756 -3.25908 0.323431 -2.71497 0.095033 -4.09016 -0.00116248 0.0821771 -0.275795
32 1 9.87929 9.94333 1.55991 1.62421 0.562029 0.539634 0.195185 -4.15605 0.696169 0.315463 -0.742409
63 1 8.67537 8.41689 2.85527 2.76819 -2.94487 -3.00422 0.662213 -4.07067 -0.284905 -0.0297313 0.657645
34 1 1.56322 1.53193 4.33679 -0.952258 4.00998 -3.69822 0.150845 -4.04359 -0.0332411 -0.327973 -0.296967
66 1 1.57215 1.48687 7.11143 1.12102 -0.756516 -0.173328 0.101346 -4.06617 -0.755278 -0.279351 0.636178
75 1 2.89311 2.8404 5.74553 -1.05968 -1.17222 1.23112 0.204433 -4.07492 0.0729663 0.334784 0.0371489
36 1 4.40063 1.54895 4.25111 -2.87292 -4.04763 1.8391 0.36866 -4.12034 -1.09256 0.173008 0.771097
38 1 7.09416 1.39995 4.24202 -3.6573 0.686315 -1.69824 0.270517 -4.18234 0.202989 0.356493 0.12228
68 1 4.3595 1.43477 7.09187 -2.57017 1.67515 -1.78398 0.0717128 -4.08818 -0.226906 0.20049 0.44705
70 1 7.1585 1.54108 7.06462 1.32808 3.13826 0.949463 0.152085 -4.06594 0.492209 -0.41957 0.705543
77 1 5.73687 2.81105 5.77402 0.810646 -0.0442098 1.20414 0.289911 -4.10064 -0.328344 0.856447 -0.618906
73 1 11.4278 2.9484 5.74163 1.34806 1.75496 -3.23638 0.174283 -4.09646 -0.490738 -0.09586 -0.542125
40 1 9.89906 1.49682 4.21305 -2.765 1.50951 -4.20016 0.26822 -4.04996 0.280024 0.288174 0.874778
72 1 9.95906 1.59012 7.21596 1.83896 0.518555 -0.335481 0.275242 -4.0036 0.318562 -0.478515 -0.758894
79 1 8.49161 2.9077 5.61094 1.50221 -2.48151 -2.41845 0.231764 -4.08438 0.599638 -0.445478 0.577791
42 1 1.58537 4.47159 4.41049 -1.6884 0.294993 -0.42512 0.494466 -4.10887 -0.195705 -0.44651 -0.0241454
50 1 1.64563 7.17705 4.29202 1.00778 2.54438 -0.0278641 0.415309 -4.05041 -1.25159 -0.736743 -0.0413029
74 1 1.49409 4.3535 7.16465 1.02487 1.54306 1.99213 0.186118 -4.05145 0.78743 -0.79129 -0.360257
82 1 1.38344 7.31959 7.21879 -0.334037 2.31498 -0.237054 0.778484 -4.04591 0.29589 -1.16236 -0.166578
83 1 2.9179 5.86885 5.88299 -1.16187 -4.10609 -0.49862 0.456706 -4.11688 -0.232733 0.0816685 -0.216599
44 1 4.14521 4.31519 4.43061 -1.59417 3.29995 -2.80268 4.93152 -4.03185 1.08791 -0.0118616 -0.421348
46 1 7.08461 4.2867 4.40553 -1.83724 0.976192 0.252666 0.25651 -4.07269 0.071725 0.783329 -0.5648
52 1 4.34568 7.22925 4.45373 2.33219 2.14516 -0.432169 0.385896 -4.12975 -0.160556 -0.704089 -0.403776
54 1 7.18765 7.22151 4.40873 1.68847 -2.53566 -1.14564 0.310262 -4.09303 -0.362744 -0.287973 -0.549175
76 1 4.27349 4.31801 7.0622 -1.18643 -2.1542 0.0343305 0.216493 -4.12215 0.290993 -0.197805 0.631374
78 1 7.18242 4.33784 7.12914 4.80247 2.65831 -0.692123 0.153526 -4.14251 -0.140278 0.191856 -0.212811
84 1 4.43266 7.20257 7.21491 1.15125 1.1349 1.08885 0.494228 -4.16869 -0.943206 0.45257 -0.51584
85 1 5.68715 5.77344 5.74566 -3.98333 3.22652 -1.62862 0.115828 -4.03392 0.270078 -0.33476 -0.179627
86 1 7.10972 7.14438 7.17499 3.79315 -1.81017 0.458906 0.137232 -4.19097 0.282146 0.00942514 0.122835
81 1 11.3968 5.7748 5.82527 1.15922 3.004 0.417113 0.364283 -4.1375 -0.0626299 0.124409 -0.629919
48 1 9.9328 4.37049 4.22579 -1.73526 -0.001273 -0.180356 0.299777 -4.08518 0.285946 -0.413405 0.862135
56 1 10.0262 7.03574 4.2256 2.93719 0.303795 -0.928605 0.344872 -4.03792 -0.215974 0.661051 0.728172
80 1 9.91576 4.29811 6.97404 -2.23331 -0.759693 -1.15256 0.6655 -4.05697 0.18519 0.0139296 0.708865
87 1 8.63053 5.82779 5.69625 0.0975323 0.933684 -1.67529 0.330633 -4.09157 -0.523364 -0.550824 0.208413
88 1 9.9638 7.17785 7.21971 2.13242 -2.25769 3.69372 0.210463 -4.07975 0.341704 -0.0391468 0.170653
65 1 0.130455 11.4286 5.58624 3.03456 -2.176 3.21245 0.392995 -4.07179 -0.604052 -0.0417353 0.583463
67 1 3.00579 11.3642 5.6756 -0.0351813 -2.73187 1.55284 0.166842 -4.10883 -0.654489 -0.106897 0.119165
58 1 1.50986 10.0023 4.19626 1.73877 -1.50757 -4.49311 0.286765 -4.09643 0.369545 -0.659387 0.94627
89 1 0.139871 8.57799 5.61011 1.61371 -2.9051 -1.36909 0.376878 -4.1019 -0.446064 -0.331278 0.249312
90 1 1.37524 9.99373 7.10323 4.03333 -1.8808 0.508446 4.90682 -4.11343 0.801666 0.285466 0.376169
91 1 2.82465 8.51583 5.7942 1.93366 0.321916 0.728017 0.3545 -4.08475 0.142104 0.261563 -0.706646
69 1 5.69788 11.286 5.68744 1.42868 3.89243 1.43756 0.18297 -4.19552 0.416495 0.458439 0.21754
60 1 4.35312 9.90712 4.3464 1.12429 -1.55251 -5.07918 0.172213 -4.11735 -0.846535 0.172125 -0.162162
62 1 7.10754 9.93152 4.14701 -0.480688 0.256674 3.46724 4.7661 -4.11904 0.629012 -0.159142 0.852938
92 1 4.22827 9.83937 7.0365 -0.159058 0.113041 0.367355 0.613466 -4.04176 0.652992 0.903543 1.06321
93 1 5.76342 8.61148 5.71109 -2.84349 0.549261 2.81238 0.13787 -4.08009 0.262085 -0.132602 0.475758
94 1 7.17668 10.0076 7.17706 0.862135 -0.72893 -0.192317 0.10892 -4.05094 0.25583 -0.735197 -0.550576
71 1 8.49385 11.4189 5.71244 0.9778 3.27514 2.35675 0.104954 -4.04125 0.565753 -0.50205 0.265103
64 1 9.9115 9.9387 4.35637 4.66886 -5.11961 -0.430797 0.253209 -4.11826 -0.0340779 0.0725789 -0.339195
95 1 8.64166 8.4878 5.84537 2.22345 1.00554 -0.636691 4.98516 -3.97483 -0.345503 0.690879 -0.821755
96 1 10.0696 9.98458 7.15896 -1.94446 3.60975 -0.230913 0.258758 -4.09637 -0.215768 0.0636306 -0.175955
98 1 1.55056 1.49229 9.88786 -0.893869 -1.68618 1.46874 0.232302 -4.08886 -0.209015 -0.18986 0.504204
107 1 2.96108 2.83997 8.58875 3.68599 -0.117031 -2.41933 0.199044 -4.14944 -0.00776006 0.584518 -0.639452
13 1 5.73017 2.98098 11.3897 -2.79947 -0.481618 2.034 0.142722 -4.07679 0.216991 -0.59332 -0.0704023
100 1 4.41747 1.56559 9.96361 4.58172 -2.94981 -0.861824 0.196175 -4.10707 0.073558 -0.431469 0.353326
102 1 7.10808 1.44749 9.93163 -0.185173 0.825036 -0.453376 0.190274 -4.09171 0.0958955 0.446571 -0.286038
109 1 5.74927 2.91083 8.50799 0.949746 -2.76196 -0.522843 0.0546743 -4.07115 0.0468643 0.151069 -0.194884
7 1 8.51265 0.19706 11.3531 -0.564485 -0.461783 4.32041 0.436278 -4.08509 0.322025 -0.938688 0.580332
105 1 11.4361 3.0065 8.62752 -1.45845 -3.30626 -0.86888 4.4124 -4.13187 -0.848299 -0.820101 -0.609854
103 1 8.65212 0.0404912 8.53203 1.36282 -4.20474 -1.3833 0.313909 -4.12632 -0.582865 0.608322 0.3069
104 1 9.97602 1.50397 10.0802 -4.34041 4.55477 -0.0330078 0.280338 -4.05607 -0.0425202 0.503719 -0.907026
111 1 8.54506 2.9476 8.53019 1.1556 -1.27585 -0.548702 0.134416 -4.07502 -0.202083 -0.278193 0.369771
19 1 2.98091 5.68987 11.4458 -3.2091 -0.319135 -3.33073 0.241231 -4.13242 -0.50861 0.376838 -1.15136
106 1 1.56544 4.27195 9.9535 -2.88305 2.82779 -1.7914 0.11494 -4.03069 0.129679 0.951275 0.29986
113 1 0.0933568 5.57255 8.55223 -2.13172 -1.40412 1.6873 0.533016 -4.17357 -0.299825 0.826767 -0.000190561
114 1 1.50032 7.10178 9.97399 0.671715 0.479675 1.5123 0.167546 -4.07263 -0.483603 0.065033 0.484587
115 1 2.84798 5.79906 8.55659 -0.745494 -0.210323 2.55171 0.221476 -4.11422 0.3257 -0.25386 -0.278308
108 1 4.35845 4.31916 9.9023 -0.810328 2.56462 2.20457 0.154983 -4.13288 -0.0105286 0.488457 0.242377
110 1 7.0881 4.38888 10.0116 -1.01321 0.296762 1.70772 0.205885 -4.12687 0.0139937 -0.325763 -0.693534
116 1 4.41279 7.10577 9.92649 1.75997 -0.918049 -1.53808 0.400959 -4.14066 -0.563999 0.0895839 0.0736621
117 1 5.67233 5.70607 8.42868 1.90657 1.65075 -1.00581 0.373622 -3.97818 0.668244 -0.788137 0.812257
118 1 7.05003 7.1539 9.82354 -0.434201 1.64876 -3.94951 0.581464 -4.09604 0.551721 -0.045429 0.728012
112 1 9.8591 4.27059 10.0659 -2.6683 1.51576 0.814914 0.461099 -4.08526 0.600112 0.131887 -0.370987
119 1 8.62041 5.68696 8.53748 2.52516 -3.24996 -2.45002 0.364996 -4.06934 -0.29344 0.120869 0.117604
120 1 9.98258 7.04069 9.94628 -1.09315 2.7299 -2.60765 0.267382 -4.07798 -0.409676 0.528976 0.261872
25 1 -0.00741825 8.61897 11.4203 1.48148 0.293013 0.0808789 0.375875 -4.0075 0.887243 -0.878771 0.148533
97 1 0.0698893 11.3798 8.62475 0.698899 2.73477 1.007 0.119745 -4.06098 0.0428562 0.14103 0.0560444
99 1 2.98295 11.3649 8.59227 2.16081 -2.67076 1.50303 0.253833 -4.08448 -0.562547 -0.0394646 -0.819585
121 1 0.0754758 8.54078 8.70484 -0.346522 1.08702 2.62288 0.326909 -4.10565 -0.218523 0.307337 -0.228845
122 1 1.4739 9.98807 10.0054 -1.3986 2.18404 -0.210086 0.0525407 -4.10348 0.140609 -0.0472688 -0.066052
123 1 2.85281 8.58092 8.57925 0.530836 -2.48888 -0.162274 0.177055 -4.1273 0.369591 0.048156 0.0110675
5 1 5.85142 11.34 11.5216 -0.0495768 1.84056 -2.79632 0.603236 -3.9992 -1.34171 -0.620198 -1.2788
101 1 5.76666 11.3384 8.44 -1.41854 1.69531 0.291 0.242766 -4.11771 -0.485337 0.245309 0.489559
124 1 4.36631 9.99114 9.84216 -4.00058 -0.256685 1.35356 0.384688 -3.99405 -0.305171 0.51007 1.6137
125 1 5.7152 8.6513 8.61582 -4.54842 0.0861449 1.91047 0.446501 -4.04398 0.7354 -0.530696 -1.04059
126 1 7.1672 10.0177 10.0408 1.05564 3.10703 0.694357 0.176911 -4.09195 -0.183364 -0.118977 -0.177081
31 1 8.48647 8.48086 11.4129 -1.89801 -1.59458 2.43364 0.213044 -4.12126 0.221488 -0.338031 -0.402618
127 1 8.5536 8.66047 8.63572 -0.154483 1.37619 0.7506 0.307512 -4.08394 -0.0287976 -0.572556 -0.482067
128 1 9.91674 9.91516 10.0784 -2.35427 -0.061333 -0.230995 0.189766 -4.09492 -0.127132 0.800268 -0.566566
