ITEM: TIMESTEP
18500
ITEM: NUMBER OF ATOMS
128
ITEM: BOX BOUNDS pp pp pp
9.1820414557946428e-02 1.1372179585441760e+01
9.1295553899622739e-02 1.1372704446100222e+01
8.2649142340810125e-02 1.1381350857659072e+01
ITEM: ATOMS id type x y z vx vy vz c_csym c_peratom fx fy fz
2 1 1.4799 1.36111 1.40682 3.05776 -0.143213 -2.59443 0.228865 -4.10618 0.367168 0.415812 0.882783
11 1 2.80915 2.84179 0.0869901 -3.74196 -0.201654 -3.56159 0.144544 -4.12064 0.422115 0.434202 0.103495
41 1 0.13989 2.87173 2.86747 0.462105 1.46137 0.408137 0.160634 -4.10179 -0.321793 0.0017518 0.257061
43 1 2.97226 2.81008 2.89852 -1.06505 0.256209 -0.283428 0.315798 -4.06122 -0.392223 0.0446371 -0.0538139
4 1 4.2632 1.42085 1.42233 0.0543542 -1.97163 2.30881 0.241448 -4.08952 0.712916 0.546698 0.18264
6 1 7.09548 1.5794 1.45682 -4.75364 -0.502823 -0.0960768 0.266833 -4.07486 0.576105 -0.399083 0.227652
37 1 5.78056 0.0881767 2.85945 0.201333 -1.13518 -0.0413541 0.124473 -4.00254 -0.591535 0.373727 0.144591
45 1 5.79028 2.96728 2.92515 -0.708616 0.0953707 -1.62054 0.245652 -4.06223 -0.521809 -0.580518 0.0386065
9 1 11.4699 2.81332 0.0916599 0.0745293 3.47657 0.702505 0.276005 -4.08984 -0.758043 0.625758 0.171851
8 1 9.96652 1.49239 1.52187 2.21198 0.491768 -4.0317 0.0825697 -4.01228 0.100889 0.401316 -0.300206
15 1 8.617 2.90348 0.125268 -2.43045 3.94862 1.30085 0.108564 -4.05849 0.0358272 -0.240995 -0.2269
47 1 8.56292 2.9865 2.95189 2.19636 -0.316658 1.0584 0.105435 -4.14602 0.0719695 -0.310918 -0.414621
10 1 1.51287 4.26927 1.57383 -1.39882 0.886422 -0.460809 4.63394 -4.09869 0.393402 0.241609 -0.753481
17 1 0.200667 5.73337 0.171813 3.83801 2.66177 -3.78011 0.381151 -4.05826 0.0753162 0.157292 -0.557353
18 1 1.40462 7.15675 1.6112 0.45918 1.27652 -1.39101 0.45377 -4.07674 0.403905 -0.190811 -0.440704
49 1 0.00432955 5.66488 2.88598 0.185663 -0.256389 -1.45602 0.452142 -4.01016 0.658074 1.56667 1.00124
51 1 2.96266 5.8134 2.88433 -4.32746 1.90022 -2.29764 0.317869 -4.07409 0.107512 -0.373307 -0.28
12 1 4.35327 4.24716 1.40446 -2.35906 -1.2034 3.18784 0.239885 -4.02775 -0.295838 0.591632 0.938903
14 1 7.20551 4.23521 1.41978 -0.750042 -0.991078 2.36358 0.355926 -4.10914 -0.819296 0.517769 0.210598
20 1 4.46782 7.24205 1.56792 -0.943567 -0.952269 -0.478597 0.478251 -4.03513 -0.699414 -0.450464 -0.748767
21 1 5.77316 5.75788 0.0132869 2.01581 -2.06627 -0.852848 0.32459 -4.18075 -0.564331 -0.468413 0.799313
22 1 7.09202 7.12899 1.54669 -1.013 0.299339 -3.64691 0.194006 -4.07879 0.386718 0.377915 -0.435133
53 1 5.75114 5.76388 2.86343 -1.00595 -0.413588 0.22705 0.246397 -4.05486 -0.36037 -1.21927 0.385536
16 1 10.0103 4.45606 1.48107 -1.85721 -0.24925 0.160219 0.503425 -4.09138 -0.709419 -1.83352 -0.651287
23 1 8.50697 5.7035 0.136104 -0.662911 -0.795481 -0.0729504 0.188112 -4.09766 0.130087 0.474992 -0.403888
24 1 9.95346 7.15809 1.41144 2.26161 -0.117517 -2.35209 0.187988 -4.15767 -0.130677 -0.180317 0.229483
55 1 8.43526 5.69208 2.82098 0.386187 0.165334 2.662 0.435338 -4.10786 0.824822 0.235029 0.782257
1 1 0.0457993 11.3308 0.0755759 2.22492 -1.02576 3.30457 0.158668 -4.17629 -0.11582 0.0988354 0.127411
3 1 2.89621 11.2588 0.0819679 2.18914 -0.483635 2.96113 0.141617 -4.06978 0.779337 0.405526 0.806521
35 1 2.93131 11.3926 2.87058 1.42411 -1.77089 -0.056055 0.209576 -4.01979 0.185798 -0.641168 0.479522
26 1 1.53171 9.94742 1.47499 -0.45441 -0.274602 -1.15308 0.0773165 -4.12211 -0.212341 -0.104716 0.343637
27 1 2.86001 8.47632 0.173362 0.264528 -0.437005 -2.37823 0.5031 -4.11411 0.0730329 0.115286 -0.716943
59 1 2.93794 8.49897 2.91183 -4.08607 -3.16806 -2.82809 0.124821 -4.10112 0.0856601 0.755063 0.113767
28 1 4.37871 9.83683 1.39295 2.01653 1.54379 1.16339 0.398575 -4.1045 -0.316339 1.09149 1.06279
29 1 5.73787 8.56902 0.0496269 0.735094 0.567954 -1.7547 0.172974 -4.16625 0.888767 -0.585027 -0.728354
30 1 7.11611 9.93713 1.48853 -1.81484 -1.75996 -0.00924219 0.134354 -4.06461 -0.160485 0.66631 0.549251
61 1 5.81924 8.57538 2.97991 4.36412 -2.79793 -1.24944 0.180335 -4.12466 -0.289788 -0.405066 -0.471227
33 1 11.3301 11.322 2.85207 2.72521 0.624278 -1.92385 0.114597 -4.12601 0.12239 0.445587 0.326772
39 1 8.6385 11.3682 2.82581 3.52579 -0.729871 -3.80437 0.274896 -4.15048 -0.815404 -0.0914009 0.140526
57 1 11.3037 8.59947 2.86485 4.89735 3.01996 -0.550332 0.0723007 -4.09257 0.123571 -0.0895455 0.307705
32 1 9.95818 9.88784 1.42006 -0.107918 0.351914 1.19313 0.15928 -4.05287 0.045734 0.182533 0.295349
63 1 8.579 8.54475 2.83061 1.35157 -0.853737 -1.54371 0.165801 -4.15667 -0.311257 0.00572207 0.169552
34 1 1.52445 1.42147 4.35156 1.49955 3.40243 -0.601462 0.162658 -4.07281 -0.172502 0.27594 -0.350198
66 1 1.4784 1.43797 7.16639 -3.11073 3.33956 2.33778 0.143369 -4.05734 0.172337 -0.250829 -0.25224
75 1 2.77932 2.9431 5.81263 -2.32775 -5.15879 -0.580854 0.404049 -4.1369 0.384815 0.125268 -0.410491
36 1 4.36788 1.53995 4.4819 0.483063 0.530436 0.996169 0.401255 -4.02418 -0.155412 -0.28111 -0.861691
38 1 7.23394 1.47703 4.31251 -1.50753 -2.98787 -1.13401 0.234632 -4.07476 -0.689379 0.0510316 -0.0397306
68 1 4.18785 1.56031 7.156 -2.28317 1.04935 2.3376 0.21218 -4.09355 0.219496 -0.356593 0.0143001
70 1 7.2172 1.53969 7.22393 1.83948 0.705729 5.33348 0.290288 -4.09056 -0.886529 -0.12856 -0.156962
77 1 5.72862 2.90162 5.81214 -1.14701 -1.57517 -2.44362 0.119599 -4.11102 0.567695 0.288966 -0.072419
73 1 11.4419 2.95803 5.69606 -3.13536 1.40379 5.45255 0.249863 -4.11332 -0.168117 -0.0474979 0.136166
40 1 9.93626 1.56299 4.3677 -2.56047 -2.24263 -3.30992 0.170753 -4.09147 0.305606 -0.44118 -0.0171014
72 1 9.97202 1.49743 7.14393 0.932722 2.34439 0.142179 0.0550251 -4.11418 -0.141003 0.503217 -0.288132
79 1 8.43356 2.96461 5.75166 4.23953 -3.43168 2.28885 0.388568 -4.14159 0.51119 -0.147285 0.243338
42 1 1.52799 4.434 4.13871 -1.13876 -4.29075 -1.70733 0.725279 -4.09615 0.170882 -0.814713 1.05257
50 1 1.48991 7.25794 4.29711 -0.864916 0.0315097 -0.79456 0.238023 -4.13124 -0.250529 -0.774201 -0.184626
74 1 1.42818 4.50439 7.01483 3.26951 4.37348 1.81549 0.670168 -3.98431 0.831078 -1.40769 1.40348
82 1 1.50839 7.18016 6.97388 -0.142862 -1.19469 1.07205 0.289635 -4.12324 0.132051 0.00675386 1.04028
83 1 2.87315 5.76971 5.67411 -0.591546 -2.04964 1.37367 0.0732156 -4.13173 0.639764 0.0585322 0.0328708
44 1 4.20797 4.23961 4.38527 0.841396 -0.0867357 -1.92176 0.451588 -4.04736 0.608483 0.480805 -0.322867
46 1 7.13509 4.36426 4.32952 -0.249838 0.381926 -1.34117 0.103848 -4.08197 -0.128356 -0.096763 0.292891
52 1 4.40741 7.09862 4.2983 -2.65043 1.6579 1.96617 0.167562 -4.11741 -0.14474 0.0196916 0.245148
54 1 7.16526 7.10538 4.43098 -1.74731 -1.52122 0.850246 0.429044 -4.17595 -0.373201 -0.142744 -0.707164
76 1 4.31041 4.35765 7.18726 -0.455096 1.76796 -2.55604 0.0811945 -4.02542 -0.325393 -0.23559 -0.108596
78 1 7.19952 4.42037 7.21223 2.1021 2.70087 1.57243 0.297793 -4.09355 -0.491943 -0.35481 0.0224075
84 1 4.31183 7.19517 7.18561 0.98606 0.520923 1.79263 0.0460916 -4.11703 -0.178497 -0.298151 -0.019706
85 1 5.72811 5.66223 5.81941 -3.13534 -0.638485 -2.48507 0.203761 -4.0479 -0.207326 0.344581 -0.361779
86 1 7.16192 7.22042 7.152 3.65285 -0.783938 -0.384091 0.263032 -4.16635 0.256517 -0.669495 0.0288945
81 1 11.4235 5.72596 5.63113 -2.03019 -0.012457 -0.96452 0.252986 -4.07279 -1.212 0.973981 -0.281519
48 1 9.94359 4.31928 4.38843 -0.992919 -1.33344 -0.130509 0.227173 -4.07941 0.0995059 -0.244125 -0.671049
56 1 9.86352 7.17258 4.28693 2.27459 -0.287471 2.03143 0.192788 -4.10173 0.534301 -0.248222 -0.0727963
80 1 9.98061 4.309 7.17474 -2.71441 3.42472 2.18735 0.150772 -4.11509 0.269127 -0.372904 0.0070223
87 1 8.66529 5.68179 5.80002 -0.544065 1.8314 3.06383 0.363203 -4.02866 -0.745664 0.327667 -0.22029
88 1 9.94337 7.17095 7.1528 0.605244 -1.03454 -2.10707 0.176287 -4.12879 -0.290141 -0.102515 -0.50197
65 1 0.104112 11.3662 5.79813 2.2447 -2.34055 5.2565 0.117891 -4.06862 -0.44784 -0.061472 -0.287546
67 1 2.8853 11.2789 5.70711 1.91913 4.13318 -5.96163 0.258341 -4.09627 0.563282 0.755028 -0.141537
58 1 1.38019 9.99616 4.3567 1.0978 -0.0251534 2.35395 0.321181 -4.10006 0.615514 -0.385366 -0.533708
89 1 0.0664583 8.56141 5.75222 -0.571622 -1.75455 4.41631 0.108489 -4.05255 -0.379437 0.19223 -0.421645
90 1 1.60614 9.87713 7.03395 -3.86395 0.248103 -1.95177 0.532546 -4.09663 -1.30561 0.569384 1.04867
91 1 2.94543 8.56446 5.66546 0.927486 -0.464021 -0.0629778 0.164541 -4.11222 0.22432 -0.252297 -0.393351
69 1 5.72864 11.3906 5.86577 -1.84709 0.536398 -2.06597 0.286045 -4.04942 0.0756693 0.262247 -1.024
60 1 4.41008 9.94391 4.288 0.642144 0.922598 0.357649 0.161305 -4.05165 -0.351174 0.362903 0.281287
62 1 7.17452 9.94779 4.28593 1.54236 -0.0886899 4.71155 0.125833 -4.06683 -1.03546 1.39936 -0.201063
92 1 4.32617 9.98388 7.15222 2.23567 3.29058 -0.880441 0.0891125 -4.15108 -0.230103 -0.447801 0.14633
93 1 5.67311 8.48106 5.80493 -0.368144 -2.07036 0.65312 0.31706 -4.04604 0.255945 0.778504 -0.610572
94 1 7.08622 9.94637 7.07005 -2.76356 4.01625 -2.81394 0.328038 -4.15887 0.827388 -0.339351 0.660067
71 1 8.53347 11.455 5.76976 0.414661 -3.12465 0.0998383 0.146257 -4.06385 0.135111 -0.462698 0.0617814
64 1 9.89311 10.0122 4.312 -1.40911 -3.26803 2.5157 0.144937 -4.12679 0.431171 -0.0121515 0.181543
95 1 8.44928 8.64518 5.56467 1.72781 -3.12572 2.94182 0.746802 -3.86959 1.74629 -0.846066 2.19279
96 1 9.8941 9.91577 7.19995 -1.22236 -2.40509 -0.87753 0.236446 -4.11355 0.300328 0.219587 -0.935386
98 1 1.55291 1.36055 10.1005 -2.50963 0.128051 0.653017 0.577048 -4.14715 -0.655055 0.617428 -1.24938
107 1 2.73974 2.95499 8.54763 -1.09925 2.6511 -0.410422 4.82595 -4.12609 0.790976 0.119923 0.194742
13 1 5.70377 2.91913 11.3408 0.295634 1.13443 1.37396 0.154844 -4.05221 0.368507 -0.52511 0.0147093
100 1 4.26698 1.47004 9.94018 -1.53156 0.351658 1.32489 0.0571555 -4.14828 0.271232 0.217383 0.515096
102 1 7.22564 1.42931 9.9824 0.608674 -0.0276536 -1.49311 0.183879 -4.11361 -0.509608 0.663342 -0.0188048
109 1 5.6544 2.9099 8.62292 0.793439 -2.59423 -0.513798 0.138422 -4.04036 0.486945 0.0689042 -0.494032
7 1 8.60174 0.0541216 11.396 3.77839 -1.19013 -1.35045 0.146008 -4.18293 -0.151137 0.145668 -0.0429203
105 1 11.5072 2.86371 8.54434 -5.98796 1.76958 0.160352 4.83802 -4.06921 -0.706097 0.452363 0.238664
103 1 8.56875 0.0829505 8.49966 -2.42731 1.39328 -0.379506 0.0893241 -4.12413 0.0103079 0.0736476 0.168354
104 1 9.97071 1.53514 9.92212 3.80514 0.651956 1.30622 0.161326 -4.1268 0.0813684 -0.340809 -0.0208019
111 1 8.53474 2.92865 8.56944 0.726791 -0.352357 0.127884 0.136074 -4.02588 0.611881 0.178151 0.0994002
19 1 2.95994 5.78505 11.3495 1.11997 1.03268 -3.09437 0.309656 -4.05936 -0.578693 0.244919 0.830573
106 1 1.41258 4.33725 9.98552 -3.1794 -5.16282 -0.371824 0.234862 -4.02453 0.53895 0.241796 0.131971
113 1 0.0652994 5.78572 8.50371 -0.583818 -1.11574 2.85827 0.0664529 -4.11961 0.34652 -0.101849 0.0286152
114 1 1.48634 7.19079 9.91846 -1.94385 0.40223 -2.94555 0.113391 -4.03901 -0.00202876 -0.371429 0.168356
115 1 2.8755 5.77049 8.51231 -1.65586 0.79519 4.50805 0.0703539 -4.11571 -0.0454705 -0.304861 0.531588
108 1 4.21354 4.26605 10.1113 1.20828 -3.05986 -1.64268 5.08607 -3.9999 0.325885 0.37693 -1.33966
110 1 7.19797 4.24546 9.97966 -0.780149 -0.694105 -2.47582 0.218077 -4.14825 -0.405712 0.322955 0.0255058
116 1 4.31594 7.18895 9.95851 2.42733 -0.65879 -0.86183 0.0742576 -4.03267 -0.251196 0.0928182 0.0356578
117 1 5.70174 5.82964 8.63017 -0.604799 0.558683 -2.19844 0.221696 -4.09029 -0.224241 -1.28168 -0.417854
118 1 7.15652 7.01783 9.94957 -1.02838 0.560247 -3.59354 0.4878 -3.97805 0.946546 1.25543 0.231521
112 1 10.0186 4.37272 10.085 3.1691 1.35611 0.811634 0.267677 -4.14315 -0.062188 -0.392826 -0.683845
119 1 8.64046 5.6697 8.59811 -0.978148 -2.7783 0.686799 0.182874 -4.03436 -0.392482 0.457347 0.151952
120 1 10.0404 7.13426 10.0412 -1.96096 -0.47437 1.05275 0.234616 -4.12387 -0.690818 -0.0788054 -0.129404
25 1 0.0907072 8.55626 11.376 -0.750039 -1.95423 3.456 0.0599419 -4.10798 0.426235 0.280392 -0.250426
97 1 0.0864152 11.3201 8.5462 0.466791 1.30164 -1.5293 0.133123 -4.09753 0.367052 0.133253 -0.236348
99 1 2.91636 11.3909 8.60369 1.27893 3.34434 -4.89163 0.154993 -4.08972 -0.163094 0.0267497 -1.05235
121 1 0.101348 8.45902 8.50921 -0.129217 2.63189 -1.25441 0.270818 -4.07502 0.30868 0.963852 0.111581
122 1 1.56439 10.0482 9.94281 2.45231 1.59038 3.26194 0.412859 -4.089 -1.09618 -1.35202 0.193154
123 1 2.8593 8.65048 8.55882 1.64997 2.38226 2.59063 0.218689 -4.06616 0.537535 -0.99616 0.085132
5 1 5.83804 11.3551 11.394 0.76998 1.9204 -0.729253 0.358596 -4.06761 -0.609641 0.0656971 -0.389652
101 1 5.66852 11.3293 8.5114 0.658303 -1.11709 1.11618 0.19887 -4.09899 0.475665 0.704029 0.249248
124 1 4.27382 9.98338 9.9756 0.544095 -1.58223 -3.47534 0.106817 -4.1621 0.212306 -0.268081 0.20636
125 1 5.78349 8.57273 8.6621 0.409639 -0.431549 3.64792 0.351983 -4.13487 -0.313305 0.0179309 -0.628389
126 1 7.16621 10.0625 9.85519 3.00577 -2.74032 1.50922 0.487971 -4.04053 -0.27057 -0.305263 0.674286
31 1 8.42858 8.62424 11.4119 -0.647743 2.80069 0.183829 0.548262 -4.12191 0.72483 -0.616006 -0.911846
127 1 8.56986 8.61076 8.63247 1.58801 0.945648 0.871375 0.263804 -4.02761 -0.25792 -0.798643 -0.196855
128 1 9.99848 9.97392 9.89438 -2.70308 2.50462 2.13384 0.175887 -4.06688 -0.198433 -0.369491 0.638288
