ITEM: TIMESTEP
250
ITEM: NUMBER OF ATOMS
128
ITEM: BOX BOUNDS pp pp pp
8.9620002384172892e-02 1.1374379997615689e+01
9.0970770584537064e-02 1.1373029229415337e+01
8.2650173347150913e-02 1.1381349826652730e+01
ITEM: ATOMS id type x y z vx vy vz c_csym c_peratom fx fy fz
2 1 1.63421 1.56476 1.54334 1.60275 -2.72914 -1.48967 0.263133 -4.03732 -0.749911 -0.12273 -0.578474
11 1 2.96271 2.85633 0.0749673 -2.47437 6.95332 -0.0690219 0.179494 -4.03274 -0.115185 0.809152 0.450802
41 1 0.215419 2.90152 2.87429 0.0210343 0.806085 -1.39456 0.43311 -4.04848 -0.821777 0.366132 0.460012
43 1 2.9116 3.01806 2.99616 -1.34413 -2.1715 -0.555134 0.17857 -4.18589 0.360902 -0.40113 -0.333475
4 1 4.40309 1.53589 1.53092 -0.191373 -0.488383 -1.57903 0.147207 -4.13775 -0.330931 -0.158969 -0.0220861
6 1 7.06094 1.46652 1.60828 0.707761 1.32189 -2.50617 0.261953 -4.18525 0.0641635 0.280787 0.0415102
37 1 5.66898 0.0855158 2.95154 1.77645 3.08521 -2.22897 0.0716966 -3.98937 0.133733 -0.00866868 0.15082
45 1 5.62064 3.02876 2.95614 -0.0470522 -0.372333 -2.8021 0.406719 -4.11291 0.182274 -0.242271 0.172691
9 1 11.413 2.85918 0.117587 -1.02691 0.256143 2.68617 0.0948485 -4.05649 -0.317931 0.24757 0.271108
8 1 9.87025 1.51854 1.59434 1.09086 0.578882 3.79345 0.307407 -4.07113 0.953822 -0.269561 -0.334529
15 1 8.5517 2.82258 0.182603 -3.19277 -1.3084 -4.55474 0.186943 -4.05031 -0.21971 0.24221 -0.468637
47 1 8.4742 3.00302 2.91272 2.11031 0.433748 -1.29358 0.159798 -4.06678 0.483611 -0.399479 -0.497354
10 1 1.41121 4.3658 1.50362 -1.05756 0.0925735 3.80238 0.53676 -4.02215 0.991544 0.25261 -0.493693
17 1 0.147783 5.79959 0.0359828 0.258139 -0.439244 -3.48242 0.345064 -4.04301 -0.106721 -0.730502 -0.0469434
18 1 1.55801 7.23199 1.56269 -0.970077 -2.78378 -1.91668 0.432282 -4.08463 -0.59007 -0.925449 -0.54753
49 1 0.0562182 5.73726 2.9759 -0.262643 -1.495 1.75814 0.234757 -3.97965 -0.350235 -0.525696 -0.916345
51 1 3.10751 5.6375 2.84661 -1.58207 1.54606 -1.9866 5.10278 -4.05243 -1.39032 1.01298 0.0858638
12 1 4.34173 4.32298 1.3956 1.79229 -2.79514 1.7736 0.264423 -4.02808 0.021236 -0.509016 -0.208207
14 1 7.04087 4.30616 1.49493 -4.40217 1.97881 -0.883068 0.203784 -4.07026 0.814236 0.231048 0.127764
20 1 4.32646 7.18834 1.46902 2.26896 -1.06803 -0.155903 0.229708 -4.11095 0.0118105 -0.0105073 -0.108687
21 1 5.70551 5.76258 0.0416816 1.28633 0.590062 2.42386 0.0799033 -4.15333 0.65818 -0.468526 0.343704
22 1 7.10164 7.21935 1.55804 -3.91686 -1.64348 -1.507 0.367217 -4.05433 0.886469 -1.16924 -0.709692
53 1 5.66534 5.72785 2.86311 1.65728 1.21292 -1.17003 4.82471 -4.22404 0.0905655 0.229818 0.311933
16 1 9.96173 4.33149 1.4911 -1.40157 -4.42016 -1.07053 0.0924042 -4.13469 0.381255 -0.2127 0.0483166
23 1 8.5239 5.677 0.187684 -0.855151 0.842496 -2.72355 0.24914 -4.076 -0.18914 0.437595 -0.607178
24 1 10.0117 7.10835 1.48353 4.58337 -6.95892 -0.62019 0.18805 -4.13603 0.0860005 0.208674 0.124204
55 1 8.55632 5.75136 2.84551 -0.12605 -3.02401 -1.78402 0.0751244 -4.14641 -0.010217 -0.0570861 0.418991
1 1 0.189948 11.3841 0.111238 0.796964 -2.10212 -0.47152 0.162543 -4.05811 -0.664052 0.376176 0.422987
3 1 2.99599 11.42 0.1604 0.358181 0.884114 -1.44381 0.11417 -4.07273 -0.58039 0.17777 -0.59371
35 1 2.8107 11.4565 2.96669 0.87503 -2.59004 0.352006 0.35628 -4.0888 0.710218 -0.261298 -0.130786
26 1 1.46541 9.95367 1.44675 0.800506 1.24812 0.844579 0.175878 -4.08139 0.807787 -0.665018 0.49252
27 1 3.008 8.52648 -0.0639977 2.1192 -0.0748377 -0.277806 0.451836 -4.09047 -1.00023 -0.450441 0.951209
59 1 2.93963 8.4959 2.88383 1.85924 1.1426 -1.25045 0.258633 -3.90721 0.184311 1.11567 0.247747
28 1 4.32778 9.99166 1.44407 -0.455897 -2.03129 -0.508364 0.138862 -4.1493 0.0346078 -0.548516 0.785014
29 1 5.80418 8.45439 0.0786663 -1.70161 1.21898 1.01036 0.326147 -4.09974 -0.661782 0.826062 -0.361073
30 1 7.02617 9.89632 1.56685 -1.04103 0.282106 -0.791665 0.296836 -4.10879 0.64061 0.532705 -0.545963
61 1 5.77082 8.44076 2.957 -0.456624 -2.70193 1.68806 0.539985 -4.04645 -1.8057 0.954364 -0.21744
33 1 11.3584 11.3568 2.91299 3.56357 -0.164876 2.26125 0.14927 -4.17452 0.401634 0.502399 0.142017
39 1 8.54885 11.304 2.97279 -1.79054 0.959523 -2.14874 0.253979 -4.1005 -0.728781 0.314127 -0.435777
57 1 11.2339 8.63529 2.99056 0.0735167 0.75326 -0.976215 0.606647 -4.08107 0.900664 -0.0842793 -0.416391
32 1 9.95562 9.9436 1.59633 -1.92025 2.93988 0.439073 0.223684 -3.99538 -0.115463 0.347675 -1.54097
63 1 8.54519 8.57803 2.89597 4.98205 -1.41241 -1.09076 0.12185 -4.18409 -0.0897183 -0.083422 0.399981
34 1 1.49748 1.60153 4.37243 -2.83808 0.951045 -2.80478 0.218225 -3.98256 -0.794062 -0.566178 -0.588928
66 1 1.45287 1.38958 7.23579 -2.03022 -0.989285 -0.743966 0.588104 -4.06892 0.51914 0.734583 -0.548199
75 1 2.88691 2.8169 5.76891 -1.95901 -0.622435 0.867918 0.329988 -4.19951 0.127227 0.721519 -0.00957227
36 1 4.33204 1.50687 4.34579 -0.0775118 0.0111926 2.26989 0.173568 -4.12295 -0.0653193 -0.0477224 -0.00677533
38 1 7.16425 1.59298 4.3349 -0.470409 -2.19698 0.745969 0.179761 -4.1544 -0.553017 -0.706574 -0.612392
68 1 4.30227 1.38826 7.08414 -1.43015 3.65249 0.910516 0.202695 -4.06436 0.311868 0.506082 -0.082131
70 1 7.1635 1.56403 7.07379 -0.356407 -2.81398 1.43646 0.271946 -4.06482 -0.425445 -0.987708 -0.0127399
77 1 5.70708 2.96324 5.74502 0.0472476 -0.327515 -2.39073 0.181605 -4.06415 0.671359 -0.410668 -0.301415
73 1 11.4314 2.94868 5.76583 -2.06119 -1.58043 0.567948 0.181229 -4.0724 -0.154801 -0.0767886 -0.172234
40 1 9.8978 1.56385 4.25142 3.22912 0.0569416 1.53297 0.260049 -4.11477 0.427696 0.00508721 0.467535
72 1 10.0207 1.46417 7.04984 -0.433916 0.521301 -1.33948 0.200283 -4.10205 -0.0280053 -0.0667942 0.00261058
79 1 8.48403 2.96714 5.65906 2.6252 2.0049 1.01695 0.195281 -4.03311 0.596303 0.146284 0.663898
42 1 1.61398 4.45527 4.35517 -0.899107 0.635253 2.74782 0.561242 -4.06795 -1.38467 -1.31192 -1.0287
50 1 1.39808 7.15449 4.16161 1.48848 -1.02102 0.0313475 4.88234 -4.15637 0.953382 0.0621759 1.03923
74 1 1.50999 4.3094 7.12954 1.12071 1.27276 -0.340114 0.108634 -4.11249 0.080764 0.522157 0.0713192
82 1 1.39484 7.17584 7.21599 -1.01649 0.0690404 -1.25391 0.209965 -4.08734 0.0683853 -0.235345 -0.246054
83 1 2.75408 5.82269 5.72654 1.53073 -0.747402 0.108915 0.414219 -4.01848 1.12032 0.671027 1.13914
44 1 4.27957 4.47213 4.5032 0.895826 4.33367 1.69965 3.59925 -4.03199 0.215239 -0.643084 -0.679219
46 1 7.12371 4.36176 4.20641 2.57233 3.17453 0.0513642 0.225695 -4.04414 -0.320148 0.328597 1.2592
52 1 4.18023 7.2042 4.37833 0.563623 -2.08846 -1.93148 0.631292 -4.12059 0.706173 -0.492313 -0.193915
54 1 7.13944 7.09462 4.21668 -0.318691 3.26034 -3.00701 0.216694 -4.00917 0.318276 -0.152301 0.506695
76 1 4.32761 4.32974 6.99538 2.86341 1.6009 -1.69645 5.21197 -4.04408 -0.233333 0.404547 1.26342
78 1 7.26484 4.28976 7.23522 2.16802 -1.74282 -6.75314 4.80124 -4.10518 -1.10911 -0.286779 -1.02461
84 1 4.19312 7.17483 7.20613 2.30421 -0.928431 0.290859 0.364367 -4.03863 0.675793 0.0186225 -0.627942
85 1 5.76257 5.86059 5.74406 0.444151 -1.49463 2.70729 0.388356 -4.09033 0.197054 -0.4144 0.10486
86 1 7.17075 7.12921 7.19409 1.98427 -1.25353 1.11188 0.191584 -4.08023 -0.16318 0.635595 -0.325528
81 1 11.3152 5.69158 5.74287 -0.458468 4.55944 0.931139 0.279241 -4.08107 0.436745 0.39529 -0.276101
48 1 10.0074 4.32286 4.3473 -0.0719736 1.45952 -1.35174 0.128551 -4.14178 -0.324254 -0.105771 -0.441332
56 1 9.96072 7.18569 4.28156 0.21665 -0.541316 4.3203 0.114693 -4.09604 -0.0713964 -0.507551 0.50667
80 1 9.87807 4.4096 7.09123 -0.18754 0.567506 -2.39578 0.336662 -4.11333 0.337236 -0.698194 0.615298
87 1 8.51853 5.82895 5.70648 0.737558 3.34869 2.51658 0.254029 -4.12988 -0.0262859 -0.565248 -0.234383
88 1 10.0229 7.13125 7.06018 0.00495074 -1.10208 1.98206 0.445567 -4.07775 -0.439894 0.500372 0.801561
65 1 0.154236 11.2562 5.70163 1.90844 2.59306 -1.31581 4.35776 -4.0935 -0.257775 0.914202 0.04347
67 1 2.7743 11.4374 5.68327 3.43936 -0.686557 -4.46772 0.482714 -4.1677 0.413928 -0.69727 0.57804
58 1 1.51772 9.89905 4.25854 -3.81305 -2.47323 1.49408 0.39874 -4.1025 0.0256874 0.129106 -0.179811
89 1 0.117738 8.63004 5.70418 -0.741583 0.431328 -0.089026 0.281016 -4.10965 -0.41687 -0.52402 -0.0506126
90 1 1.41889 9.91919 7.2141 -0.179776 -4.63825 1.48518 0.265292 -4.06352 0.55831 0.279929 -0.0946779
91 1 2.72253 8.48947 5.71965 -3.20097 -1.36931 0.633038 0.450624 -4.0212 0.76209 0.54275 0.21758
69 1 5.72077 11.3566 5.68946 -2.35152 3.88086 0.408939 0.136314 -4.08311 0.695826 0.423126 0.114029
60 1 4.24303 9.99593 4.36544 -4.71864 -2.61327 2.19155 0.14484 -4.13978 0.0783127 -0.538278 -0.401903
62 1 6.96134 9.8783 4.31049 -0.407449 -0.69979 -3.02801 0.5086 -4.05397 1.62915 1.29278 -0.373188
92 1 4.34879 10.0167 6.9954 3.88293 1.04422 2.00313 0.439302 -4.05154 -0.764021 -1.03423 0.546597
93 1 5.76026 8.51985 5.67781 -2.69073 2.58965 3.78473 0.287988 -4.10023 -0.799336 -0.790373 0.94432
94 1 7.20798 9.90483 7.11339 0.425631 1.2711 -0.166602 0.101001 -4.0612 -0.276125 0.231185 0.165171
71 1 8.52569 11.3401 5.66233 -0.0865867 -2.32204 0.499726 0.160079 -4.04252 -0.50985 0.440821 0.729564
64 1 9.94827 10.1014 4.3639 -2.63263 1.80119 1.02058 0.450245 -4.01444 0.229767 -1.69134 -0.30873
95 1 8.47475 8.50516 5.68858 1.90114 -2.61514 -0.758032 0.181363 -4.15719 0.33396 0.355624 -0.28136
96 1 9.90767 9.86049 7.2134 0.550355 -1.88681 -1.14795 0.302244 -4.05648 0.60497 0.620108 -0.285801
98 1 1.50724 1.61525 9.98974 -1.29309 -2.5581 -0.443881 0.385356 -4.1322 0.591708 -1.02223 -0.522963
107 1 2.9568 2.84138 8.39881 1.55468 -0.684542 2.8656 0.435176 -4.12056 0.136322 0.112023 0.53508
13 1 5.83994 2.92645 11.3752 -2.11381 3.27557 -1.06925 0.171102 -4.0745 -0.476454 -0.297104 0.00181345
100 1 4.41659 1.59577 10.0273 -1.40838 -1.11437 0.222299 0.446631 -4.09781 -0.516291 -1.03435 -0.265976
102 1 7.15829 1.50752 10.012 3.93024 4.34421 4.18917 0.166426 -4.11225 0.103116 -0.238684 -0.512538
109 1 5.70806 2.83108 8.52873 1.6316 -0.517502 0.0730214 0.27506 -4.06416 0.272087 0.29631 -0.687219
7 1 8.4972 0.124905 11.4513 -1.34484 -0.564686 -1.97165 0.0906811 -4.03726 0.13927 -0.101499 -0.043847
105 1 11.4294 2.99798 8.5004 0.682257 5.01297 2.3733 0.497305 -4.05841 -0.598723 -0.442153 0.116099
103 1 8.59186 0.0461384 8.54163 -0.195675 -1.12715 0.24624 0.12557 -4.06971 -0.324782 0.323759 0.236421
104 1 10.1192 1.48447 9.95387 -0.496938 1.78434 0.37594 0.328686 -4.09984 -0.90901 0.00372165 0.211084
111 1 8.62274 2.68981 8.46823 0.607583 2.22146 -1.79423 0.891524 -3.97045 0.224825 1.07436 0.869601
19 1 3.00717 5.80574 11.2756 0.95871 -4.46372 -0.171005 0.288308 -4.0718 -0.923718 -0.704956 0.946926
106 1 1.63311 4.2174 9.89584 -0.623286 1.6657 0.0977978 0.408551 -4.09511 -0.581568 0.418432 0.564686
113 1 0.102471 5.78136 8.61633 0.817735 4.96496 -0.945022 0.316237 -4.05848 -0.433149 -0.940918 -0.240311
114 1 1.55324 7.07927 9.88624 2.32746 -0.470113 0.953045 0.268164 -4.04731 0.378737 0.406946 0.568215
115 1 2.97148 5.6685 8.54819 -1.57097 2.18213 -0.47469 0.111218 -4.12481 -0.413215 0.20209 -0.127282
108 1 4.39679 4.26769 9.88108 -0.19492 -2.02034 1.79907 0.0978134 -4.16179 -0.232773 0.0359701 0.2674
110 1 7.19406 4.23356 9.89242 1.01415 -1.78284 -1.19845 0.202577 -4.15199 -0.00260188 0.280431 0.0863885
116 1 4.39093 7.08529 9.96831 0.504734 -4.02083 1.22598 0.226579 -4.05713 -0.0164439 1.01383 -1.22693
117 1 5.71328 5.74721 8.48229 -3.01334 2.29606 0.276855 0.201242 -4.10194 0.0791786 -0.203029 0.110585
118 1 7.15067 7.129 9.89927 -1.19263 -2.52779 0.504626 0.0990371 -4.08093 -0.165145 -0.319973 0.44023
112 1 9.95195 4.18218 10.0598 -0.0874214 -1.9382 2.58679 0.419005 -4.04925 -0.169074 0.721808 -0.538088
119 1 8.48854 5.76113 8.50615 -1.90313 -0.819173 -2.45631 0.335442 -3.97338 1.51947 0.0630213 0.919502
120 1 9.89372 7.11861 10.0531 1.01432 0.0429626 -1.22405 0.285316 -4.01676 0.430578 -0.837868 -0.386171
25 1 0.168439 8.4659 11.3207 -3.34885 4.06876 2.77832 4.1363 -4.12122 -0.47872 0.558569 0.495806
97 1 0.162338 11.3545 8.59844 -0.0297364 1.40816 -1.41646 0.140571 -4.06188 -1.03993 -0.537281 0.384628
99 1 3.03602 11.3292 8.57697 -0.512019 0.993534 -2.79614 0.371785 -4.09646 -0.719501 0.433732 0.0465783
121 1 0.0524246 8.60308 8.82173 0.256715 1.871 4.09167 4.44434 -4.15397 0.077519 -0.276163 -1.25423
122 1 1.59339 9.99584 10.0327 -2.18954 -1.49016 1.91921 0.25352 -4.08096 -0.298787 0.273383 -0.0853455
123 1 2.82651 8.54711 8.51141 3.22934 -3.978 -0.881761 0.243703 -4.10453 0.636279 0.241456 0.515873
5 1 5.74297 11.3799 11.3839 0.626619 1.96803 1.65721 0.0589535 -4.09422 -0.0265983 -0.0427539 -0.340571
101 1 5.73233 11.2851 8.50416 -2.49225 0.753608 -0.698992 0.203962 -4.10088 0.363347 0.876244 0.293801
124 1 4.28793 9.94483 9.98502 1.2804 1.8889 0.745461 0.227377 -4.03125 1.20055 0.116533 -0.362584
125 1 5.77631 8.58728 8.50878 -1.67798 1.20494 2.76189 0.188665 -4.12014 -0.456459 -0.164765 0.14203
126 1 7.11644 9.95494 9.96481 -0.727586 -0.731039 -0.0622999 0.123278 -4.0698 0.415686 -0.238647 0.148032
31 1 8.54303 8.46889 11.3594 0.870761 -3.2059 0.944331 0.261725 -4.13526 -0.312125 0.778149 0.790718
127 1 8.6448 8.48819 8.66585 0.570006 -0.552025 1.37412 0.371479 -4.13069 -0.782893 0.547936 -0.756047
128 1 9.90552 10.0156 10.0883 -1.30024 -0.0687993 1.05456 0.473596 -4.03922 0.369862 0.131927 -0.0675904
