ITEM: TIMESTEP
19250
ITEM: NUMBER OF ATOMS
128
ITEM: BOX BOUNDS pp pp pp
9.5232971706143310e-02 1.1368767028293554e+01
9.4052434135969420e-02 1.1369947565863825e+01
8.2649099970686521e-02 1.1381350900029195e+01
ITEM: ATOMS id type x y z vx vy vz c_csym c_peratom fx fy fz
2 1 1.34467 1.52416 1.47889 -0.584774 3.11108 -2.72238 4.80637 -4.12037 0.979312 -0.724459 0.37221
11 1 2.8108 2.77991 0.174756 -0.559613 -4.59526 -0.401032 0.744082 -3.99801 0.690489 0.559743 -0.36848
41 1 0.0959172 2.95609 2.90856 0.674206 -2.12464 -0.0535688 0.0786507 -4.11281 0.0751599 -0.410935 0.11917
43 1 2.9435 2.9492 2.88054 2.58991 -4.02642 0.72446 0.0846892 -4.14237 0.139346 -0.18731 0.25707
4 1 4.33482 1.44164 1.43369 -1.76026 0.861353 4.53736 0.176338 -4.05379 -0.00281421 -0.0723817 0.134869
6 1 7.0732 1.63755 1.439 2.87692 -0.519384 3.54451 0.287924 -4.10344 0.188185 -0.545162 0.240041
37 1 5.87439 0.105796 2.9303 -4.70675 3.04179 -0.751364 4.7413 -4.07568 -0.802089 0.233354 0.160658
45 1 5.59995 2.96752 2.83911 1.80298 -1.25053 2.10068 0.506324 -4.12654 0.631003 -0.429297 0.0934747
9 1 11.3163 2.91575 0.148146 1.89452 -0.661696 2.68677 0.375946 -4.04861 -0.320771 -0.320102 -1.07438
8 1 9.98067 1.44556 1.50348 1.07559 -0.41576 -0.138728 0.258804 -4.08613 -0.31089 0.367223 0.0091429
15 1 8.51188 2.89305 -0.00287936 1.59666 1.17229 2.38272 0.091902 -4.12154 0.701315 -0.275498 0.102522
47 1 8.5364 2.97392 2.83933 1.27988 3.74957 -1.05358 0.137127 -4.07448 0.496664 -0.0154398 0.123944
10 1 1.41742 4.31018 1.41795 -0.782734 0.174897 1.52147 0.353595 -4.16133 0.735254 0.588874 0.579824
17 1 0.0415307 5.73705 0.0947137 3.20797 0.961444 3.5849 0.172427 -4.09955 0.207439 -0.0372152 -0.46632
18 1 1.43942 7.03361 1.59664 3.079 0.105059 -1.46905 0.384333 -4.06916 0.635506 0.77951 -0.583374
49 1 0.00907947 5.74919 2.89712 -0.796004 0.926169 -0.192786 0.199367 -4.11754 -0.0527569 -0.204092 0.0724832
51 1 3.0479 5.71069 2.96206 3.1424 2.36607 1.52035 0.40773 -4.05189 -0.731598 -0.159371 -0.540671
12 1 4.26436 4.34212 1.37436 2.52938 0.201806 1.33816 0.366387 -4.13319 0.321629 -0.365307 0.359047
14 1 7.09392 4.27775 1.38325 -1.85509 2.34582 -0.680003 0.143832 -4.07863 0.154776 0.305123 0.160064
20 1 4.35811 7.0502 1.53203 0.632834 -0.817893 2.52451 0.207144 -4.15137 0.353679 0.516757 0.0547725
21 1 5.72039 5.74996 0.0688299 0.725932 -1.24068 -1.25862 0.0953396 -4.1127 0.642961 -0.0634284 0.389827
22 1 7.10477 7.18342 1.57837 -0.752358 -2.29731 -2.22531 0.333442 -4.02868 -0.0223533 -0.450395 -0.780165
53 1 5.74437 5.56443 2.83818 -2.97961 -2.98177 -0.558175 0.606962 -4.05545 0.0332171 0.910594 0.269279
16 1 9.96938 4.29253 1.41771 -1.92768 -0.817761 -4.35818 0.18531 -4.04267 -0.164886 0.0448962 1.2169
23 1 8.71016 5.70299 0.0987987 -2.6671 0.911263 -2.03253 4.88302 -4.10132 -1.24228 0.439608 -0.381999
24 1 9.95334 7.15212 1.50715 2.76374 -1.5702 -0.228261 0.0519199 -4.02793 -0.625951 -0.333402 -0.188709
55 1 8.51619 5.76263 2.91018 1.30721 -0.0318163 -1.20421 0.0939307 -4.1206 0.230807 -0.525892 -0.132851
1 1 0.0908988 11.3775 0.00308509 -2.33794 2.3689 -2.46454 0.200991 -4.06491 -0.200267 -0.318952 0.186325
3 1 2.9065 11.2955 -0.0402158 1.58572 -2.70431 3.45557 0.461547 -4.05366 -0.453242 0.487335 0.492632
35 1 2.95679 11.5117 2.96606 1.7398 -1.48861 1.72813 0.548302 -4.0564 0.185744 -0.823759 -0.685926
26 1 1.53454 10.0815 1.49215 1.11328 2.88164 -1.32121 0.465652 -4.04059 -0.282626 -0.681302 0.41603
27 1 2.94708 8.53472 0.222248 0.0558232 -1.20025 1.25398 0.284066 -4.0953 -0.284798 0.116443 -0.603425
59 1 2.9955 8.50273 2.8917 -2.50711 0.36675 0.389939 0.253719 -4.01662 -0.300264 0.239519 -0.288566
28 1 4.35714 10.0508 1.55599 4.37688 1.99224 2.18118 0.269299 -4.06836 -0.106257 -0.138896 -0.0146814
29 1 5.64127 8.55413 0.0438426 -1.3086 -1.5832 -1.1816 0.318776 -4.12886 0.72607 0.585732 0.626466
30 1 7.15689 10.0493 1.48376 0.330719 -4.22817 2.87047 0.205979 -4.03835 0.200975 -0.667011 -0.512935
61 1 5.75288 8.64955 2.87596 0.0461973 3.22704 5.88359 0.255221 -4.08754 -0.306398 -0.112135 0.0724176
33 1 11.3981 11.3231 2.99728 1.24586 -1.85731 -1.77767 0.459297 -4.07781 -0.442925 0.510891 -0.252229
39 1 8.42643 11.5142 2.87615 -2.49692 0.711609 -0.576479 0.385686 -4.05784 0.665611 -0.448306 0.580529
57 1 11.2129 8.53182 2.8411 3.06865 -0.918938 -3.65374 0.413432 -4.09234 0.933925 0.586574 0.452376
32 1 9.83359 10.0686 1.51722 -1.38364 -2.29034 -2.27543 0.385097 -4.05296 0.675866 0.000674828 -0.0211345
63 1 8.44042 8.57418 2.91529 -2.53583 -2.32856 -2.23584 0.113352 -4.17327 0.731247 0.0967157 0.131038
34 1 1.5702 1.50463 4.28096 -1.05657 -1.47346 0.618295 0.171771 -3.96345 -0.893981 0.216624 0.208058
66 1 1.55065 1.4739 7.25419 3.09756 2.94592 -1.23856 0.42673 -4.10428 -0.886596 -0.0248245 -0.595236
75 1 2.82365 2.89772 5.70705 -0.471511 0.362056 -0.789757 0.350012 -4.18937 0.961891 0.158322 -0.147875
36 1 4.4918 1.50758 4.38924 -2.35855 2.6099 0.804486 0.745175 -4.01137 -0.851287 -0.0316239 -0.196417
38 1 7.18223 1.64395 4.35547 1.47815 -1.19803 -3.46433 4.90101 -4.1028 -0.5386 -0.422141 0.353159
68 1 4.23473 1.44506 7.16743 2.44248 -3.27478 -2.09271 0.098241 -4.07441 0.150185 0.296128 0.0380055
70 1 7.17055 1.53641 7.20153 -2.10101 1.44998 -0.722151 0.123968 -4.09277 -0.449931 -0.238815 -0.420673
77 1 5.62783 2.96951 5.82919 -2.57362 1.72744 -0.122515 0.56175 -4.04256 0.782228 0.0748938 0.145068
73 1 11.406 2.80063 5.76488 -1.08054 1.74832 -0.731486 0.31715 -4.07912 0.568129 0.553235 -0.303677
40 1 9.94154 1.61517 4.38654 5.21153 0.927135 -0.774804 0.349613 -4.06098 -0.346501 -0.491726 -1.10056
72 1 9.9748 1.51804 7.23895 1.11398 0.35633 0.288967 4.92234 -4.16469 -0.24118 -0.313154 -0.766718
79 1 8.58159 2.946 5.7912 -0.536972 1.06595 -0.295852 0.066172 -4.033 0.299456 0.105147 0.0578842
42 1 1.5348 4.35705 4.18834 1.82074 -1.09702 -1.79732 0.410715 -4.07151 -0.525439 0.0344697 0.845337
50 1 1.53786 7.1378 4.28462 -2.2642 0.0531145 -2.74743 0.0947048 -4.14134 -0.0787776 0.272562 0.0238807
74 1 1.50914 4.29191 7.13795 -0.657696 0.278762 0.685579 0.0408977 -4.17069 -0.108206 0.213403 -0.152508
82 1 1.42808 7.08778 7.03579 0.249679 -0.245075 0.0367421 0.409026 -4.02296 1.28564 0.386606 0.108182
83 1 2.90003 5.65147 5.72676 2.63187 2.65299 -1.93468 0.209803 -4.0321 -0.0798526 0.856586 -0.314248
44 1 4.40789 4.40314 4.38452 2.55534 0.578178 3.9275 0.47426 -4.07098 -0.366757 -0.471332 0.213721
46 1 7.15083 4.23772 4.28513 -2.14498 0.396867 -1.33555 0.269982 -4.10745 -0.226588 0.484792 0.464099
52 1 4.41852 7.17482 4.33849 2.56244 0.0348628 -0.835211 5.32037 -4.13166 -0.071056 -0.348873 0.424466
54 1 7.03957 7.14288 4.33121 -0.309092 -0.156722 2.62823 0.345363 -4.13 0.214445 -0.0911643 0.159177
76 1 4.23769 4.40912 7.13547 -4.60419 1.57845 2.35949 0.323816 -3.98234 1.13408 -1.0627 0.197766
78 1 7.25593 4.33566 7.17915 1.47159 3.09725 0.282896 0.236398 -4.01089 -0.584998 -0.871311 -0.256504
84 1 4.39833 7.15392 7.18635 0.381072 -1.39274 -3.51168 0.121923 -4.04073 -0.396207 -0.52391 -0.968628
85 1 5.8881 5.67994 5.91372 -1.12333 -2.93255 1.75746 0.875942 -3.99777 -1.40673 -0.0954767 -1.54317
86 1 7.14504 7.11224 7.16426 1.51396 -0.0485563 -3.84779 0.0943938 -4.10956 0.593316 1.08097 0.414458
81 1 11.3705 5.78431 5.68951 -1.74746 -0.780408 0.230385 0.143136 -4.04552 -0.162625 -0.596364 -0.208177
48 1 10.0734 4.35671 4.36623 -1.89517 -2.22575 0.665473 0.303264 -4.03952 -0.958262 -0.650498 -0.124537
56 1 9.88767 7.17502 4.33134 -1.8119 -0.07368 5.00529 0.0450008 -4.09591 0.323637 -0.108777 -0.264938
80 1 10.1508 4.24908 7.17914 -1.35923 1.0905 -3.05479 0.574093 -4.15699 -1.29126 0.758107 -0.402764
87 1 8.58745 5.73575 5.73781 -0.0587527 2.01871 0.350561 0.048469 -4.097 -0.173334 -0.396948 -0.229578
88 1 9.90074 7.12142 7.1255 -1.31509 0.556937 -0.830203 0.168055 -4.14515 0.659581 -0.0628587 0.221989
65 1 0.0696542 11.3227 5.62003 -1.66372 1.37334 -2.54324 5.13017 -4.13892 0.493416 0.308678 0.746409
67 1 2.84187 11.3799 5.77465 3.31331 -0.809721 -1.51244 0.255869 -4.19436 0.334414 -0.195352 -0.267085
58 1 1.54239 9.84018 4.19734 2.44946 -0.829807 -1.60185 0.687734 -4.09384 -0.00513038 0.338259 0.217588
89 1 0.00275871 8.59568 5.63353 -5.07452 0.369512 4.17179 0.295935 -4.14375 0.453551 -0.231362 0.29904
90 1 1.47338 9.93386 7.10254 -1.28294 2.34292 -1.8653 0.0925672 -4.0462 0.018888 -0.251756 -0.0648282
91 1 2.99626 8.64641 5.76237 0.146257 1.25365 -1.0408 0.35708 -4.04189 -0.580497 -0.95839 0.324949
69 1 5.69225 11.3979 5.89682 -1.79642 -1.64551 -2.16841 0.328646 -4.01413 0.524625 -0.126565 -0.938397
60 1 4.25869 10.0039 4.35974 -0.295736 5.80378 1.02376 0.269943 -4.12522 0.799751 0.218789 -0.392329
62 1 7.12893 9.95581 4.43164 1.1456 -4.3935 -3.22522 0.298858 -4.09241 0.159386 0.468593 -0.702945
92 1 4.37623 9.96264 7.26122 1.30804 3.4724 -0.204342 0.182662 -4.11144 -0.264534 0.155004 -0.571001
93 1 5.77145 8.69122 5.82436 -2.98891 -1.86168 -0.13347 0.339644 -4.05667 -0.369693 -0.666892 0.015907
94 1 7.18974 10.0238 7.15471 -4.82303 1.28511 -3.23546 0.279181 -4.13438 -0.147946 -0.219105 0.748467
71 1 8.61628 11.3276 5.70735 -0.0596239 0.63784 -0.0652677 0.275351 -4.04761 -0.0683226 0.427782 0.261966
64 1 9.92273 9.99044 4.2629 3.34413 1.59592 2.37959 0.143444 -4.03787 -0.473711 -0.100531 -0.121983
95 1 8.55963 8.51984 5.74771 0.496199 0.042586 2.01026 0.0691411 -4.13652 -0.25682 0.0718123 -0.118851
96 1 9.97152 9.85119 7.22492 -0.767863 0.00981416 1.71595 0.423209 -4.13308 -0.358217 0.681605 -0.243734
98 1 1.44648 1.60525 9.94387 -0.421828 2.88465 -0.125289 0.458765 -4.19892 0.628291 -1.43093 0.304405
107 1 2.914 2.91599 8.47162 -2.0006 2.66124 2.27513 0.324526 -4.07229 0.373404 0.402265 0.3845
13 1 5.66475 2.8611 11.2519 -3.6389 -1.03941 0.423072 0.318523 -4.1187 0.158928 0.366194 0.48986
100 1 4.20544 1.5581 9.89686 -0.15538 -1.32264 2.42001 0.397637 -4.06645 0.340502 -0.550182 0.451333
102 1 7.11981 1.52242 9.93587 3.17916 0.529802 -0.43035 0.0488289 -4.06168 -0.486693 0.365835 0.153351
109 1 5.67805 2.95963 8.60569 0.250987 -0.869162 0.902193 0.0868719 -4.1431 0.347651 0.218746 -0.671774
7 1 8.53249 0.156185 11.2586 -1.69744 -2.83465 2.97806 0.161428 -4.12434 0.0183848 -0.09086 0.443831
105 1 11.4086 2.8835 8.55314 -1.25309 0.624369 1.18531 0.0502432 -3.98013 0.140013 0.151696 -0.458232
103 1 8.48327 0.192828 8.63567 -2.72808 -0.223162 0.593347 0.525711 -4.01987 0.783276 -0.620168 -0.921362
104 1 10.0744 1.45607 9.81517 -2.77271 -0.183897 -2.97485 4.89949 -4.13972 -0.699794 0.4311 1.27838
111 1 8.52535 2.96879 8.60258 3.62089 1.848 0.943852 0.299968 -4.11389 0.0170918 -0.629439 -0.321404
19 1 2.96066 5.81658 11.3991 0.315768 3.0837 -1.12611 0.403181 -3.98388 -0.904066 -0.569962 0.282158
106 1 1.53055 4.18125 9.93642 -3.456 2.40788 0.125129 5.16401 -4.1883 0.121788 1.28573 0.666372
113 1 0.181448 5.71158 8.57305 0.00445668 -2.35588 1.1489 0.233783 -4.03981 -0.0166342 0.0590249 -0.111137
114 1 1.56198 7.12104 10.054 1.20337 -0.931577 -1.97405 0.188809 -4.00428 -0.223137 0.2926 -0.327999
115 1 2.97371 5.73006 8.5056 0.134639 -5.23226 2.66828 0.194885 -4.06973 -1.0058 0.791021 0.626512
108 1 4.28216 4.38644 10.0861 -1.60614 1.24112 0.389978 0.442316 -4.10491 -0.4882 -0.681557 -0.741338
110 1 7.17324 4.3841 9.93868 -0.0519243 -4.25004 1.01518 0.151541 -4.04838 -0.146351 -0.472604 0.862112
116 1 4.36977 7.08207 10.038 -0.749729 -0.253723 -4.13784 0.183874 -4.09193 -0.509808 0.585782 -0.825791
117 1 5.80893 5.7391 8.63897 2.48571 0.162454 2.26282 0.125853 -4.22072 -0.692506 -0.113012 -0.548781
118 1 7.19796 7.18699 10.0739 1.42389 -3.22651 2.92979 0.313564 -4.05736 0.0709563 -0.504951 -0.285093
112 1 9.99127 4.23671 9.8584 2.87469 1.76277 -1.73221 0.378939 -4.14057 0.398482 0.768358 0.859148
119 1 8.53857 5.68437 8.53041 1.03459 0.432838 0.860296 0.177911 -4.13106 0.622094 0.654109 0.410412
120 1 10.0149 7.06533 9.8794 -0.949924 2.68152 1.01771 0.321559 -4.10426 -0.127495 0.555548 0.192462
25 1 -0.00369431 8.57783 11.4344 0.00569457 -0.742356 -0.747639 0.266822 -4.10246 0.676963 -0.384758 0.0318828
97 1 0.108764 11.2968 8.51366 -0.428022 0.0536723 -0.20601 0.117833 -4.04683 0.317166 -0.126176 -0.100865
99 1 2.83862 11.2801 8.54393 -0.133269 3.07085 -0.95318 0.230471 -4.15367 0.0596614 0.125142 0.384738
121 1 0.216322 8.39932 8.48191 0.257223 3.10749 -0.5248 0.589284 -4.05932 -0.779184 0.598327 0.588496
122 1 1.3882 9.84699 9.92915 2.50696 -3.78688 -2.03243 0.423835 -4.04397 0.733594 0.148249 0.114292
123 1 2.95672 8.50488 8.46674 0.0761358 -2.26938 -2.3259 0.286881 -4.1392 -0.416525 -0.111055 0.894781
5 1 5.77953 11.3401 11.3699 -1.2414 -1.45719 -1.00787 0.220091 -4.16674 -0.548203 0.454584 -0.365936
101 1 5.6279 11.3777 8.66054 -0.402689 -0.0742712 -0.389776 0.360801 -4.14405 0.663379 0.368768 -0.526088
124 1 4.30052 9.93497 9.95721 -1.10317 -1.55485 0.252363 0.144488 -4.01443 0.00369215 -0.424464 0.111613
125 1 5.74536 8.4211 8.60232 1.59567 -0.455972 2.80629 0.371009 -4.14912 0.216303 0.932137 -0.0472949
126 1 7.14466 9.9952 9.84453 1.53609 1.35684 0.771402 0.398008 -4.04692 -0.0822613 -0.788108 0.936234
31 1 8.63737 8.52305 11.3985 -0.081714 -0.589614 -2.22643 0.249335 -4.07862 -0.72651 0.424273 -0.0670545
127 1 8.538 8.541 8.60107 -1.07482 -4.58989 0.41163 0.15549 -4.0121 -0.0301329 -0.359666 -0.307272
128 1 9.97748 9.90353 9.87023 0.1301 1.53061 1.89944 0.287243 -4.16026 -0.0849033 0.208965 0.311062
