ITEM: TIMESTEP
11750
ITEM: NUMBER OF ATOMS
128
ITEM: BOX BOUNDS pp pp pp
9.5306124561801653e-02 1.1368693875437945e+01
8.1724715143603355e-02 1.1382275284856277e+01
8.2649523671922465e-02 1.1381350476327960e+01
ITEM: ATOMS id type x y z vx vy vz c_csym c_peratom fx fy fz
2 1 1.42626 1.48923 1.43972 0.1699 -2.40709 -3.51461 0.218457 -4.08354 -0.00701579 0.656891 0.554237
11 1 2.8797 2.91711 0.151739 4.15174 1.76332 -1.59557 0.260761 -4.10708 0.0952938 -0.0419193 -0.286511
41 1 0.0764607 2.95231 2.84911 2.8007 -0.28701 -1.28863 0.109737 -4.11118 0.0531529 -0.129789 0.471989
43 1 2.90269 2.87633 2.84204 -0.494191 0.0626297 -3.2978 0.234889 -4.11626 -0.304471 0.613647 0.411668
4 1 4.32292 1.53678 1.55229 -1.3066 2.63548 1.42333 0.159206 -4.00102 0.23669 -0.748617 -0.421452
6 1 7.15531 1.34283 1.55461 1.68615 1.0809 0.939461 0.241041 -4.00381 -0.454811 0.305743 0.225549
37 1 5.64059 0.0363427 2.95537 -1.06147 -1.17628 0.0617592 0.179445 -4.07768 0.447818 0.676808 -0.549212
45 1 5.84939 2.96287 2.87457 0.754884 0.499084 3.27207 5.00844 -4.08409 -1.27494 -0.417414 0.671943
9 1 11.3305 2.90972 0.108693 -1.09196 4.95596 2.56252 0.197473 -4.12424 -0.047435 0.188313 -0.0711058
8 1 10.0278 1.43438 1.44195 0.533526 -1.5857 0.892494 0.156971 -4.05779 -0.00862042 -0.219392 0.481803
15 1 8.47637 2.67825 0.202117 -2.06477 2.13519 -1.30744 4.67184 -4.07453 0.5608 1.4344 -0.523017
47 1 8.58515 2.84396 2.89694 -0.695354 -1.49205 -2.79836 0.166933 -4.14587 0.0522817 0.175038 -0.270611
10 1 1.51862 4.45248 1.37908 -2.66489 -4.45132 -1.06203 0.424269 -4.08275 -0.344292 -0.850217 0.643989
17 1 0.0475146 5.77806 -0.0342696 -2.79188 1.46989 -0.749754 0.312912 -4.07724 0.651834 -0.031254 0.0476531
18 1 1.5496 7.1973 1.37812 -1.37164 5.47977 -0.781862 0.222614 -4.13189 -0.452913 -0.435731 0.105965
49 1 0.279962 5.77646 2.93356 -0.132651 -0.427529 -1.90687 0.633756 -4.06366 -1.21967 -0.276534 -0.310597
51 1 2.95397 5.7372 2.83761 2.16349 1.54008 0.693884 5.2334 -4.19979 -0.537127 0.226079 0.829394
12 1 4.3251 4.31363 1.39538 2.81236 0.135802 1.10314 0.310182 -4.05055 -0.00286384 -0.215123 0.252197
14 1 7.12773 4.40694 1.59731 3.52551 1.29829 -1.17787 0.57072 -4.05609 0.818291 -0.0154842 -0.652284
20 1 4.2484 7.22743 1.41187 -0.930032 0.650728 5.33384 0.277479 -4.09239 0.479278 -0.0718212 0.196849
21 1 5.70509 5.74106 0.0971407 -2.54924 1.09836 1.99274 0.136697 -4.14714 0.209379 0.238577 0.0873881
22 1 7.1327 7.08844 1.6704 1.48063 1.59585 0.74606 0.598101 -4.09278 0.0211391 0.133593 -0.940472
53 1 5.52102 5.71455 2.83989 0.935364 -3.42836 -1.57739 4.8331 -4.12155 0.825065 0.0522901 0.826396
16 1 10.0646 4.43812 1.43767 1.66933 0.0671837 -0.938103 4.73985 -4.02378 -0.758666 -0.60027 0.35338
23 1 8.56496 5.67967 0.0281291 -2.63381 -2.30193 -3.28006 0.288228 -4.023 -0.328376 0.202882 0.209137
24 1 9.99749 7.03648 1.4245 -2.98593 3.69918 3.30468 0.403609 -4.09827 -0.360968 0.643475 0.623079
55 1 8.61628 5.75067 3.0044 -2.57693 -4.58885 3.27842 0.248321 -3.98224 0.206441 -0.230514 -0.390105
1 1 0.163981 11.382 -0.00028977 2.03688 -1.87516 -2.0789 0.249626 -4.17315 -0.503228 0.0369448 0.203993
3 1 2.79448 11.5536 0.0803862 -0.779089 -1.42368 -0.787706 0.513479 -4.01549 1.0683 -1.07396 0.125959
35 1 2.85605 11.3407 2.93996 -0.968016 -3.55691 -0.391081 0.15415 -4.06308 0.115971 0.447694 -0.138461
26 1 1.45636 10.0183 1.52219 1.45204 -1.5416 1.51144 0.0942947 -4.12936 0.497918 -0.295122 -0.312462
27 1 2.8802 8.56096 -0.00923004 -0.039549 0.106049 -0.175406 0.0946614 -4.01297 0.652559 0.56904 0.561177
59 1 2.82011 8.52156 2.90168 0.889794 -1.50235 -0.675618 0.170605 -4.15144 0.452826 0.0970409 0.256692
28 1 4.28586 9.87689 1.37362 -2.4151 -3.75671 0.0986957 0.50466 -4.07996 -0.188526 0.725223 0.374867
29 1 5.76534 8.49403 0.0263188 0.882362 0.734888 2.12131 0.190759 -4.05467 0.0257794 0.0294019 0.117724
30 1 7.08728 9.85031 1.56002 -0.632003 -0.0889677 -0.25264 0.3304 -4.08383 0.127597 0.245135 -0.188883
61 1 5.61118 8.59511 2.93721 3.18931 -3.39475 -2.07766 0.309189 -4.11503 0.375053 -0.262687 -0.320686
33 1 11.4219 11.4855 2.92042 -2.54049 2.67477 0.580055 0.371843 -4.06411 -0.269119 -0.47272 0.0242883
39 1 8.55069 11.2668 2.81549 3.60997 2.18905 1.53184 0.329525 -4.08449 -0.32777 0.863234 0.766173
57 1 11.3909 8.43319 2.84249 0.295863 3.57841 0.0716181 0.480695 -4.08146 -0.258127 0.69264 -0.0751296
32 1 10.0074 10.0376 1.49167 -4.00307 0.872804 2.67539 0.188486 -4.10267 0.443831 -0.382689 -0.00722066
63 1 8.63666 8.61861 2.87555 0.0901064 -0.958555 -2.4788 0.27018 -4.07121 0.0602984 -0.548674 0.237441
34 1 1.50238 1.55796 4.34849 1.97603 0.774433 1.89926 0.0681546 -4.09647 0.00586062 -0.209357 -0.0202221
66 1 1.5084 1.54192 7.10855 -1.90558 0.829055 1.6161 0.133284 -4.10644 -0.280209 -0.126737 0.388767
75 1 2.83682 2.97965 5.73264 1.41811 1.652 3.04158 0.270697 -4.08037 0.347756 -0.0728966 0.565037
36 1 4.25233 1.52686 4.55616 1.03969 1.71107 -3.47455 5.02063 -4.02389 0.577069 -0.0787555 -1.25435
38 1 7.10563 1.51869 4.33239 2.6598 1.58432 3.44807 0.142858 -4.10383 0.0939069 -0.423369 -0.204091
68 1 4.273 1.47484 7.18454 0.664895 -0.577296 0.795882 0.201082 -4.19616 0.257885 0.104701 -0.680713
70 1 7.17149 1.55795 6.97538 -2.32409 -0.457149 2.50303 0.551795 -4.09451 0.366615 -0.650482 0.121489
77 1 5.71336 2.99972 5.71796 3.74132 1.23229 -1.05789 0.201731 -4.03081 0.225379 -0.468706 0.237958
73 1 11.3338 2.95597 5.74977 -0.242031 -1.43651 -0.620093 0.155949 -4.16862 -0.261962 -0.69206 -0.0501819
40 1 9.8656 1.37579 4.36745 1.08753 -2.46821 -2.15066 0.595359 -4.07314 1.24535 0.753302 -0.799019
72 1 9.97958 1.39812 7.15414 0.229842 -2.56967 2.69342 0.1738 -4.07605 -0.172473 0.525525 -0.227599
79 1 8.64428 2.90925 5.6669 1.96396 -2.58998 -1.26459 0.305742 -4.07147 -0.663435 0.165231 0.808003
42 1 1.40557 4.31754 4.3679 -4.14996 0.565138 2.09729 0.401764 -3.95527 1.26315 -0.213279 -0.403609
50 1 1.42126 7.18101 4.40449 1.30595 -0.165518 0.977771 0.371698 -4.02844 0.434659 0.0384184 -0.410671
74 1 1.55156 4.24216 7.2132 2.54261 -2.46365 0.932732 0.301576 -4.02375 -0.20052 0.723098 -0.230955
82 1 1.55158 7.20592 7.1053 -0.0374277 1.28763 0.779434 0.254083 -4.01809 -0.708557 -0.633897 0.549387
83 1 2.94117 5.91824 5.68504 -4.56058 -0.822696 0.0361867 4.5766 -4.11846 -0.649588 -1.70485 0.63816
44 1 4.27299 4.28616 4.37577 2.56207 2.06166 -0.128364 0.406991 -4.01445 0.0239763 -0.105183 -0.541936
46 1 7.15242 4.34048 4.33102 2.69052 2.00748 1.95791 0.105822 -4.13408 -0.0658258 0.122442 -0.0690208
52 1 4.34774 7.17264 4.36204 -1.49071 1.93107 1.87571 0.326109 -3.9984 0.0183822 0.551147 -0.582384
54 1 7.15106 7.1442 4.28342 -0.0996765 -1.58033 -2.81782 0.139 -4.15909 -0.37382 -0.107272 -0.169359
76 1 4.41265 4.38021 7.15771 -0.286514 1.13166 -2.84864 0.271159 -4.14067 -0.647223 -0.340399 0.174635
78 1 7.18432 4.37224 7.19319 -1.82538 -0.240043 -0.82405 0.272178 -4.13736 0.0832721 -0.171881 -0.452075
84 1 4.41147 7.18132 7.17 -0.382805 -0.165167 0.479577 0.26586 -4.12635 -0.290861 -0.214278 0.000673389
85 1 5.62892 5.71722 5.68188 3.03006 2.17144 -1.50523 0.40512 -4.03571 1.19102 0.398252 0.169933
86 1 7.13443 7.28013 7.10443 -1.06813 -0.926207 0.925559 0.278336 -4.17285 -0.32826 -0.995942 0.366995
81 1 11.4245 5.62829 5.80711 -1.98054 -0.649336 0.561573 0.420125 -4.12517 -0.880353 0.909398 -0.0224149
48 1 9.94986 4.26661 4.3171 0.279262 1.08561 1.18867 0.237531 -4.02835 0.39361 1.04303 -0.33698
56 1 10.0114 7.2032 4.32595 0.070795 0.169443 0.785708 0.152277 -4.1034 0.028374 -0.763644 0.0885009
80 1 9.92088 4.39078 7.18008 -0.988189 1.39067 1.28606 0.265965 -4.06703 0.00766423 -0.548105 0.169057
87 1 8.54718 5.81337 5.73364 0.233339 1.69789 -3.30352 0.0737056 -4.06754 0.160659 -0.407073 -0.0329154
88 1 9.85222 7.11772 7.2005 -2.83282 0.95426 -2.57686 0.349312 -4.03686 1.59055 0.698285 -0.690677
65 1 0.173295 11.4028 5.7809 -3.14066 1.5536 -0.969724 0.298317 -4.07199 -0.395423 -0.0950411 0.00471039
67 1 2.84362 11.3961 5.84084 3.41241 0.17295 0.264447 0.220698 -4.07581 0.0612257 -0.563001 -0.957742
58 1 1.35037 9.89459 4.35603 1.33549 -2.31424 4.25849 0.38849 -4.09717 0.692056 0.39063 -0.0158122
89 1 0.0457157 8.52103 5.81057 -1.38521 2.90995 -0.719124 0.228747 -4.07421 0.168412 0.116658 0.0415154
90 1 1.5358 9.92748 7.21276 1.52538 0.12144 -1.81032 0.170442 -4.10099 -0.494169 0.175731 -0.616424
91 1 2.86608 8.55784 5.73477 -0.0748005 1.09851 -0.125851 0.0860071 -4.13251 0.732569 0.408881 -0.393658
69 1 5.72845 11.2712 5.73795 -0.874427 -4.86586 4.02468 0.373203 -4.10375 -0.0368887 0.491556 0.0498069
60 1 4.29625 10.0263 4.26413 0.586167 2.15153 -1.88148 0.249507 -3.99817 -0.86103 -0.679038 1.00634
62 1 7.11031 9.93257 4.26172 1.39136 0.402323 -0.685584 0.091409 -4.15717 0.570012 0.190146 0.110929
92 1 4.2694 9.98035 7.13794 -0.079299 0.395625 -0.406233 0.12135 -4.14236 0.356228 -0.247552 0.141258
93 1 5.79463 8.59059 5.66439 -1.95224 3.5973 1.23073 0.127575 -4.10227 -0.821311 0.140885 0.258883
94 1 7.18794 9.95591 7.10657 -1.5619 -2.02963 0.158948 0.0714377 -4.09636 0.151003 -0.229988 -0.00510692
71 1 8.54255 11.3649 5.69902 -4.44659 -0.534939 -1.17229 0.0947584 -4.03011 -0.318909 -0.747187 0.416122
64 1 10.0408 9.99057 4.26071 2.05069 1.97792 -2.9294 0.18818 -4.14479 -0.209266 -0.219513 0.520698
95 1 8.5531 8.47006 5.68638 -0.178558 -3.5789 0.882327 0.240747 -4.0704 0.165476 0.89792 -0.387389
96 1 9.93851 9.93733 7.16267 -2.47584 -2.9671 -4.10348 0.127776 -4.09388 0.0590057 0.254463 -0.416307
98 1 1.47566 1.60444 10.0038 1.91249 -0.940448 -1.19384 0.315541 -4.10165 0.000683167 -0.323086 -0.740653
107 1 2.94091 2.85196 8.5392 1.32082 -1.11693 0.942584 0.161164 -4.00871 -0.237202 0.406332 0.254022
13 1 5.8251 2.89334 11.5693 -2.7523 1.27609 -2.32107 0.76799 -4.09924 -0.2563 -0.0485529 -0.517393
100 1 4.40122 1.56187 9.98301 -0.911214 3.78596 2.7079 4.98965 -4.1413 -0.0853576 -0.702709 0.186119
102 1 6.98331 1.48989 9.95991 2.0662 3.62899 -0.221081 0.822974 -4.0788 0.845474 -0.061234 0.127299
109 1 5.8079 2.80161 8.35144 1.58141 1.9993 1.70439 1.01111 -3.96096 -0.259689 1.00347 1.02025
7 1 8.54757 0.0280884 11.3684 -0.622212 -0.82314 -1.79636 0.0770933 -4.21534 -0.503686 0.0258606 -0.0883618
105 1 11.3619 2.86666 8.50371 -0.799907 -2.01191 -0.886063 0.193098 -4.0862 0.0685626 0.404914 0.136149
103 1 8.48102 0.125992 8.57462 1.04735 -0.125977 -0.901392 0.215115 -4.18257 0.273496 -0.151076 -0.10231
104 1 9.97525 1.46043 9.98288 0.131303 2.11605 -0.368355 0.151833 -4.06323 0.127672 0.00189126 -0.0530676
111 1 8.56379 2.79155 8.60143 1.11589 1.51301 2.37749 0.35794 -4.04783 -0.487825 0.259508 -0.473938
19 1 2.97897 5.73092 11.3884 0.144816 -5.32319 2.10777 0.170918 -4.12389 0.344712 0.188855 -0.830005
106 1 1.50956 4.3137 10.0531 3.11807 -1.97908 0.87847 0.174731 -4.11912 0.0707659 -0.416374 -0.670937
113 1 0.167809 5.77409 8.61913 0.696251 2.75682 1.98891 0.206575 -4.09019 -0.490303 -0.182137 -0.425264
114 1 1.5724 7.17243 10.0102 1.72766 -2.62648 -2.34659 0.196837 -4.07191 -0.439445 -0.302988 -0.496719
115 1 2.90218 5.67023 8.55389 -0.869761 3.56171 0.578328 0.198246 -4.03155 0.272667 0.521926 0.129206
108 1 4.41953 4.17925 9.92912 2.40028 -0.713255 -0.467197 0.446072 -4.16532 -0.231299 0.431033 0.135643
110 1 7.1357 4.23271 10.04 -2.31513 -1.31051 -3.295 0.289428 -4.12432 0.0914457 -0.146627 -0.540461
116 1 4.40972 7.17562 9.87552 -4.25599 -2.07287 -0.112895 0.257557 -4.10312 -0.82119 -0.147985 0.410441
117 1 5.88526 5.75153 8.68065 0.309868 1.43108 0.578905 0.405904 -3.98057 -0.612622 -0.101835 -0.780828
118 1 7.22949 7.11598 10.02 3.462 -1.02444 -0.623332 0.152999 -4.08235 -0.209909 0.492428 -0.263666
112 1 9.87204 4.22571 9.90855 -3.41969 -2.61461 -0.331168 0.330331 -4.08878 0.434115 0.490629 0.562464
119 1 8.55981 5.8407 8.54764 0.14651 2.37302 4.22729 0.253342 -4.03122 -0.558244 -1.0332 0.941271
120 1 9.96366 7.22855 9.97452 -2.28199 -0.0608197 -2.36411 0.117718 -4.09082 -0.145006 -0.727489 0.251844
25 1 0.070609 8.66227 11.368 1.47468 -2.89774 -0.242653 0.221492 -4.15861 0.113727 -0.69626 0.0977299
97 1 0.0920569 11.254 8.52235 1.33195 0.125641 -2.50048 0.300207 -4.14695 0.15191 1.07502 0.44256
99 1 2.83651 11.4027 8.57347 0.431874 2.09566 -1.99835 0.14064 -4.07962 -0.123369 0.504946 -0.264945
121 1 0.0976599 8.5952 8.71351 -1.61846 -3.81766 -1.80025 0.336251 -4.16674 0.241348 -0.631992 -1.34711
122 1 1.51975 9.95285 9.97755 -3.46582 -1.24552 3.77144 0.207047 -4.12034 0.246333 0.284891 0.0788045
123 1 2.88139 8.52832 8.48091 2.71215 -0.210308 -3.45495 0.223459 -4.09963 0.459226 -0.0122028 0.774694
5 1 5.83683 11.2985 11.4855 -2.38386 -1.32787 3.87482 0.654519 -4.00642 -0.968727 0.0899912 -0.680616
101 1 5.8695 11.3879 8.41865 0.0067297 0.986913 -0.583677 0.758826 -4.06808 -0.940046 -0.013114 0.322036
124 1 4.20605 10.0777 9.89237 0.398775 1.38454 1.7597 0.550496 -4.08878 1.15981 -0.368627 0.688065
125 1 5.72494 8.63245 8.56387 1.34613 -1.8199 0.719896 0.160743 -4.0228 0.0610844 -0.378116 -0.140497
126 1 7.09001 9.92639 9.90247 1.23536 0.891764 -1.86572 0.286701 -4.00941 0.584405 0.329275 0.795088
31 1 8.58087 8.52079 11.4526 0.23364 -0.98734 -1.75263 0.145231 -4.13979 -0.306312 0.2853 -0.13151
127 1 8.63946 8.59174 8.56937 1.47121 -0.546577 -1.93025 0.230664 -4.14242 -1.04469 -0.160308 0.155529
128 1 9.94272 9.95127 9.98068 -1.98161 0.375284 1.81354 0.125443 -4.04638 -0.26591 0.485284 -0.0208979
