ITEM: TIMESTEP
3000
ITEM: NUMBER OF ATOMS
128
ITEM: BOX BOUNDS pp pp pp
9.7897621893960007e-02 1.1366102378105866e+01
9.2894902983902128e-02 1.1371105097016011e+01
8.2650017990031063e-02 1.1381349982009850e+01
ITEM: ATOMS id type x y z vx vy vz c_csym c_peratom fx fy fz
2 1 1.63416 1.51241 1.46957 -2.84494 -3.2688 -2.27763 0.211415 -3.96237 -0.473158 -0.466606 0.161592
11 1 2.91778 2.89321 0.140246 -2.4405 -0.735217 -0.392746 0.176414 -4.12873 0.0104164 1.08346 -0.864489
41 1 0.214295 2.82097 2.87303 0.934875 0.341273 0.0908978 0.699736 -4.10931 -0.962809 0.449459 0.147052
43 1 2.84105 3.0181 2.82366 -1.96796 2.27595 -2.44486 0.335111 -4.16074 0.722017 -0.592207 0.876389
4 1 4.32489 1.57478 1.43876 -2.49941 -0.423626 -1.3193 0.152598 -4.04068 -0.0129219 -0.353794 0.336474
6 1 7.18598 1.4483 1.51486 0.363672 -1.1213 -1.98123 0.296744 -4.10634 -0.532773 0.531978 -0.234862
37 1 5.60848 0.228131 2.95095 2.50749 -0.781798 -1.17239 4.15385 -4.13806 0.451009 -1.02951 -0.153081
45 1 5.65504 2.93025 2.85935 1.26497 -2.05739 -0.977061 0.200426 -4.12106 0.463987 -0.290298 0.593822
9 1 11.3994 2.94418 0.178077 -0.760692 0.0632091 -1.65755 0.199398 -4.16602 -0.404668 -0.643039 -0.345348
8 1 9.78878 1.50665 1.56338 0.282067 -0.0268362 1.14796 0.860117 -3.97894 1.44706 -0.380067 -0.922635
15 1 8.556 2.97948 0.0903918 -1.64173 -1.96235 -0.653326 0.200518 -4.12582 0.141157 -0.63026 0.674609
47 1 8.55323 2.96611 2.82573 0.322384 1.03341 1.57825 0.352995 -4.04327 -0.0863163 0.0951403 1.01027
10 1 1.50298 4.40335 1.53528 0.821654 2.25007 -0.131211 0.17053 -4.09179 -0.407501 -0.417917 -0.419871
17 1 0.183811 5.71744 0.114717 2.27239 0.956185 0.710022 0.167214 -4.09327 -0.825946 -0.0937513 -0.615028
18 1 1.55875 7.08596 1.45592 -5.27691 0.0108933 -0.115834 0.207964 -4.08403 -0.402818 0.89949 -0.0554306
49 1 0.125126 5.88548 2.89365 -0.137651 3.6641 3.47337 0.475836 -4.09848 0.0630186 -0.800582 0.0862406
51 1 2.89643 5.65279 2.90213 1.52483 0.603639 0.418823 0.171068 -4.14661 0.258108 0.78711 0.0581419
12 1 4.38145 4.25226 1.45573 1.74042 -1.38551 -2.57482 0.311082 -4.01544 -0.464584 0.932693 -0.278702
14 1 7.14996 4.40685 1.62397 1.45797 -4.2549 -0.214186 0.65722 -4.06566 -0.0941258 -0.112977 -0.806724
20 1 4.24981 7.15479 1.43094 -0.0241491 2.44985 1.50999 0.146673 -4.04221 0.543701 -0.258059 0.387329
21 1 5.78367 5.75973 -0.0243641 -0.576395 -2.6047 1.72287 0.280532 -4.10175 -0.311217 -0.849174 1.09995
22 1 7.28886 7.16264 1.49448 1.00743 2.75987 -1.84937 0.592221 -4.10193 -0.946543 -0.229056 -0.0545318
53 1 5.60652 5.8175 2.87131 2.32242 0.385484 -0.157918 0.47854 -4.03031 0.647708 -0.531694 0.1295
16 1 10.0508 4.40191 1.53552 -0.84929 -4.48488 -2.76459 0.354073 -4.10144 -0.254942 -0.550269 -0.0102105
23 1 8.56797 5.53221 0.0356194 2.02187 2.20056 0.993257 4.81176 -4.07282 -0.202891 1.38306 0.126408
24 1 9.93251 7.02993 1.40437 -1.11862 -1.48634 1.05198 0.428332 -4.1643 -0.0610291 0.664995 0.159242
55 1 8.64253 5.66182 2.9566 0.77935 0.474517 2.30223 0.256377 -4.06022 -0.500998 0.264424 -0.148111
1 1 0.170329 11.4264 0.154496 0.16896 -2.32713 0.0570096 0.317154 -4.16106 -0.718677 -0.104274 -0.125896
3 1 2.93301 11.3491 0.0420982 0.0472348 -1.123 -1.36739 0.0743166 -4.226 0.184898 0.158931 0.153446
35 1 2.94492 11.3145 2.8423 0.868172 2.64615 6.20844 0.161339 -4.158 -0.279793 0.484645 0.247627
26 1 1.47187 9.86729 1.43288 -2.38823 2.3927 -0.0431873 0.254092 -4.02327 0.188092 0.331225 0.215945
27 1 2.93765 8.61407 0.0184674 0.19223 0.663731 -0.926194 0.210589 -4.17296 -0.178278 -0.32823 0.311754
59 1 2.91892 8.51197 2.81488 1.65125 1.34268 -2.41641 0.123115 -4.16399 -0.218288 0.120843 0.717963
28 1 4.34551 9.93292 1.41074 -0.614913 2.68658 0.245433 0.189224 -4.00386 -0.221389 0.488949 0.271445
29 1 5.61264 8.46777 0.0781043 1.09399 -2.09642 -0.546255 0.504981 -4.09521 1.19134 0.353237 -0.081074
30 1 7.19882 9.91067 1.5022 -2.69827 -0.00108136 4.57854 0.32848 -4.04782 -0.287034 0.117764 -0.152791
61 1 5.65253 8.60173 2.81672 -2.74116 1.79269 -1.03282 0.324427 -4.10597 0.432586 -0.473899 0.652567
33 1 11.4164 11.4649 2.83743 -2.0965 1.34771 -1.50077 0.531991 -4.15062 0.0859096 -0.388651 0.657365
39 1 8.48623 11.4255 2.95314 1.74823 2.20161 -0.283509 0.313365 -4.04287 0.128721 -0.737201 0.658468
57 1 11.3966 8.50555 2.86274 -2.245 1.23568 2.24048 0.161753 -4.08505 0.167347 -0.349745 0.255191
32 1 9.99818 9.96183 1.66103 1.19989 0.533313 2.71035 0.736284 -4.0699 -0.726989 0.270001 -1.01708
63 1 8.68238 8.38434 2.92277 2.58993 -2.69185 1.96696 0.489808 -4.00824 -0.569078 1.25258 0.034499
34 1 1.55722 1.5619 4.34393 0.136652 -0.427235 0.164952 0.204216 -4.06727 0.060735 -0.368675 0.0839262
66 1 1.57948 1.46389 7.1219 0.610967 -2.43575 3.07932 0.215238 -4.09336 -0.459031 -0.0732084 0.324385
75 1 2.94116 2.93397 5.78831 -0.525393 -0.145696 -4.74695 0.0995064 -4.09557 -0.396464 0.0323045 -0.108051
36 1 4.25253 1.65904 4.3224 1.47247 4.14795 -2.03196 0.392087 -4.07007 -0.171591 -0.681536 -0.293386
38 1 7.06022 1.66059 4.38722 -1.02809 -2.99349 -2.34052 3.97336 -4.06237 0.888872 -0.357369 -0.566902
68 1 4.38294 1.47919 7.20175 -1.39082 1.83587 0.383456 0.315337 -4.12422 -0.487811 0.0479244 -0.973822
70 1 7.16949 1.55716 7.01223 1.42659 0.618244 3.21567 0.461798 -4.13485 -0.141176 -0.578391 0.485345
77 1 5.58922 2.98264 5.70408 -2.90187 1.39714 4.01638 0.346436 -4.03291 1.0455 -0.363555 0.148852
73 1 11.3372 2.8528 5.75546 -1.31584 -1.29171 -1.3467 0.180911 -4.09175 -0.00474537 -0.0597671 0.328715
40 1 9.89914 1.50164 4.33717 -4.29667 0.559606 4.07227 0.32328 -4.07966 0.136704 0.160644 -0.434629
72 1 9.98698 1.37767 7.21329 0.213232 -0.0728632 -1.63128 0.359682 -4.07717 -0.244201 0.368657 -0.309234
79 1 8.63794 2.98455 5.76306 -0.450273 -2.53364 -0.717663 0.315077 -4.0317 0.0344672 -0.31599 -0.0622735
42 1 1.43467 4.38355 4.43498 -2.01309 -1.47004 0.220131 0.38763 -4.17911 0.140924 -0.425961 -0.604145
50 1 1.53698 7.09254 4.36036 -3.17831 -2.88624 -1.13075 0.167588 -4.13915 -0.445701 0.659737 -0.37069
74 1 1.5016 4.27601 7.05298 5.2398 -3.00665 1.489 0.29463 -4.11865 -0.347558 0.421025 0.821354
82 1 1.43511 7.18776 7.15717 -1.44022 -1.3679 -1.89414 0.0971563 -4.15108 0.23504 -0.200419 0.105333
83 1 2.85738 5.78467 5.72315 1.57109 -0.599541 -1.65472 0.159803 -4.04145 0.706927 -0.338081 0.841383
44 1 4.19428 4.38137 4.38127 1.18256 -0.15182 -0.245321 0.235592 -4.12066 0.901064 -0.280403 -0.531026
46 1 7.1384 4.26797 4.31511 1.45434 -1.68587 2.44431 5.22227 -4.15525 -0.294935 0.452586 -0.122881
52 1 4.29202 7.13173 4.3177 -0.934368 -2.72625 2.52569 0.114091 -4.07932 -0.134478 0.084051 0.116619
54 1 7.15212 7.06689 4.28526 -1.1807 0.0225006 -2.63278 0.219103 -4.13073 -0.140606 0.285227 -0.334022
76 1 4.33671 4.29055 7.12234 -2.54245 -2.11836 0.926788 0.12293 -4.12098 -0.378453 0.810429 0.873298
78 1 7.19406 4.31808 7.1483 3.57164 5.65796 0.239677 0.211278 -4.09495 -0.610209 -0.274035 -0.124682
84 1 4.28027 7.18453 7.22273 1.6771 1.1719 2.43756 0.238866 -4.10374 0.0828111 -0.312954 -0.753733
85 1 5.79097 5.68732 5.74683 -1.19062 -0.516445 -3.76474 0.187116 -4.06288 -0.626327 0.365088 0.0711338
86 1 7.09329 7.17705 7.11886 -3.38647 -1.13754 1.23301 0.0736503 -4.07882 0.191588 0.113157 -0.213174
81 1 11.2908 5.73031 5.83257 0.116802 -2.07371 -0.784225 0.264928 -4.04348 0.417658 0.272848 -0.388258
48 1 10.048 4.35065 4.27847 -2.84032 -2.10336 -3.29608 0.236512 -4.14124 -0.154827 -0.409343 0.165887
56 1 9.91212 7.07281 4.34907 -3.32211 2.08892 -0.968521 0.260614 -4.10778 0.817044 0.3296 0.531199
80 1 9.97133 4.36549 7.20901 0.470753 -0.337806 1.63892 0.103039 -4.10297 -0.237017 -0.263207 -0.0440919
87 1 8.50335 5.69398 5.71433 1.083 3.46386 1.59094 0.0859605 -4.13221 0.314817 0.17894 0.262582
88 1 9.9364 7.20879 7.09669 -1.50332 0.0146559 4.09268 0.114221 -4.09985 -0.111183 -0.165007 0.366455
65 1 0.0507605 11.4025 5.66226 0.809661 4.48665 1.08101 0.422037 -4.06393 0.348313 -0.154522 0.45249
67 1 2.92143 11.4097 5.7378 4.54845 0.513644 -0.0272138 0.0913984 -4.05158 0.238802 -0.356058 -0.0805639
58 1 1.4937 9.94005 4.39222 1.88338 0.10684 0.823041 0.288332 -4.07333 0.696946 0.783344 -1.38354
89 1 0.158887 8.61425 5.67611 -1.79633 -1.15858 -2.73784 0.307407 -4.01738 -1.10657 -1.07771 0.792374
90 1 1.47228 9.94752 7.15077 -1.5093 -0.338253 0.940523 0.0792098 -4.20592 0.183509 0.225641 -0.171018
91 1 2.85923 8.54028 5.7218 2.16138 -4.34336 0.714477 0.0691704 -4.05937 0.247857 0.0672142 0.235639
69 1 5.75567 11.3208 5.49087 0.527982 2.63353 0.564723 4.17661 -4.00439 -0.384401 0.0146786 1.33803
60 1 4.20093 9.90523 4.32198 2.25474 -1.35062 -2.20981 0.437172 -4.00995 0.3129 0.089192 -0.149741
62 1 7.13536 9.82298 4.2608 3.94463 -0.680075 -1.05193 0.419588 -3.96413 0.0372526 0.565663 -0.77165
92 1 4.26969 9.89735 7.17188 -2.13573 0.93447 -0.598429 0.196777 -4.0952 0.641124 0.235254 -0.311304
93 1 5.70597 8.50116 5.58509 0.593021 -0.653146 1.50534 0.440442 -4.06883 0.187202 0.319717 0.9429
94 1 7.10061 10.0079 7.23401 2.9739 -0.34081 0.749657 0.538409 -4.0705 -0.590456 -0.164922 -0.889536
71 1 8.59166 11.1861 5.6495 3.38401 -1.3979 1.4904 4.48448 -4.04224 -0.315726 0.905176 0.296227
64 1 10.1304 9.94553 4.25386 0.81548 -2.40651 -1.19682 0.509919 -4.05899 -1.03739 -0.00943248 -0.120996
95 1 8.4991 8.60468 5.72692 -2.39028 6.98175 1.52348 0.220475 -4.11723 0.368623 -0.187045 0.0143976
96 1 9.9683 9.9285 7.29154 2.63332 -1.51246 0.690186 0.439092 -4.13094 0.419726 0.469894 -1.01287
98 1 1.55253 1.55791 10.0301 -1.24104 1.67365 1.71316 0.111527 -4.02737 -0.00669329 -0.24493 -0.369853
107 1 2.86582 2.87774 8.52517 -1.64781 4.1595 -0.786744 0.170562 -4.11236 0.373907 0.0185292 0.01148
13 1 5.82523 2.95533 11.4258 -2.52291 0.182667 -0.519944 0.218996 -4.12224 -0.259714 -0.14836 -0.137312
100 1 4.41639 1.57938 9.94966 0.659247 0.017754 1.02792 0.292785 -4.11404 -1.09685 0.191498 0.775351
102 1 7.12795 1.47614 9.9917 1.78502 2.70638 -2.9184 0.121377 -4.20482 0.596135 0.257099 -0.14289
109 1 5.76976 2.89362 8.52023 -0.159952 -1.37057 2.25491 0.104641 -4.05267 0.0403014 0.406144 0.0103382
7 1 8.59898 0.0429491 11.306 2.80303 -3.56114 -0.341225 0.341569 -4.03525 -0.246284 0.402329 0.806574
105 1 11.4343 2.92696 8.5938 1.60403 1.33316 1.39794 0.156942 -4.1016 -0.246691 -0.307702 -0.376308
103 1 8.47676 0.0499 8.59177 0.174275 -0.559002 -1.67454 0.201956 -4.05753 0.271666 0.426936 -0.289802
104 1 9.87722 1.50338 9.9578 1.59964 1.32172 -6.08979 0.325316 -4.07569 0.857604 0.146687 0.151919
111 1 8.60707 2.86464 8.50506 0.760621 0.289791 1.84266 0.178138 -4.06994 -0.241609 0.198539 0.408573
19 1 2.9338 5.70398 11.4986 -4.87601 -2.38534 -0.291368 0.323824 -4.09016 0.355087 -0.376604 -1.52244
106 1 1.50033 4.32493 9.99395 -1.21795 2.33984 0.986722 0.0383609 -4.08147 0.091102 -0.020807 0.0907168
113 1 0.0521446 5.77975 8.57397 -2.03313 0.339467 1.14269 0.119061 -4.06717 0.629656 -0.529261 -0.272844
114 1 1.4765 7.1359 10.0703 1.0485 -1.16733 1.32611 0.193962 -4.08785 0.405325 -0.0944251 -0.451747
115 1 2.84239 5.63472 8.55047 2.05156 -0.754532 1.86749 0.269212 -4.0265 0.00332441 0.764349 -0.0797371
108 1 4.3189 4.35387 9.88957 -3.03863 -0.10587 0.0985895 0.204074 -4.06193 0.0143959 -0.593093 0.518396
110 1 7.18751 4.14848 9.93429 -0.775285 0.0835839 -0.123271 0.633329 -4.01359 -0.545895 1.22951 -0.564419
116 1 4.34255 7.11408 9.9149 -2.17534 -3.78534 -0.0207048 0.192909 -4.12599 -0.943157 0.12363 0.393546
117 1 5.7413 5.81361 8.60598 -0.266415 0.394445 0.372052 0.234101 -4.11392 0.595043 -0.927981 -0.57441
118 1 7.1498 7.1769 10.0866 0.240139 -0.361821 -1.74993 0.4939 -4.04166 0.338278 0.320052 -0.839101
112 1 9.98317 4.28091 9.97489 5.4087 4.09762 -0.251798 0.12818 -4.08362 0.229738 0.117165 -0.354402
119 1 8.43386 5.78675 8.58413 -0.781443 -0.402938 -1.97197 0.391529 -4.1286 0.61825 -0.372256 -0.293086
120 1 9.96398 7.13762 9.88485 -2.07509 5.11946 -0.0960429 0.229092 -4.06775 -0.498928 -0.250648 0.806326
25 1 -0.0324572 8.51915 11.3565 0.105262 0.539913 -1.78464 0.413033 -4.10161 0.678069 0.307 0.292008
97 1 0.226749 11.3858 8.68947 -1.66921 0.596096 -0.929354 0.47133 -4.04078 -0.960402 0.713613 -0.907787
99 1 2.95151 11.2495 8.63052 -4.16751 2.75051 0.382132 0.327836 -4.10104 -0.0721166 1.085 -0.0631238
121 1 0.0905505 8.57352 8.63245 0.152125 0.0758842 -2.01094 0.138527 -4.09132 0.257028 -0.291247 -0.090899
122 1 1.49302 10.0187 10.0004 1.73102 -2.20659 -2.42046 0.147432 -4.04634 0.150784 -1.16052 0.569568
123 1 2.87756 8.51209 8.63828 1.20932 1.4092 -0.587795 0.12423 -4.0962 -0.238159 0.25956 -0.195571
5 1 5.71849 11.4282 11.4426 -4.1417 -2.19034 2.63171 0.262588 -4.09382 0.176588 -0.552163 -0.266653
101 1 5.70823 11.5089 8.62602 -1.12609 2.25516 -6.12843 0.466005 -3.95187 0.576611 -1.35065 -0.733748
124 1 4.39464 9.90698 9.95316 4.44275 2.97696 1.84905 0.286627 -4.13306 0.0328399 0.394046 -0.0963377
125 1 5.75472 8.53497 8.56925 2.65682 -2.40937 1.83827 0.0610482 -4.10812 0.0220062 -0.240158 0.106408
126 1 7.09206 9.97169 9.91204 0.674259 -3.17849 0.933379 0.171376 -4.15406 -0.3351 -0.129209 0.760127
31 1 8.54395 8.63554 11.3044 2.5639 -2.58277 -0.780685 0.408797 -4.00635 0.478106 -0.220085 0.293612
127 1 8.50483 8.56487 8.52432 2.4664 -0.71075 -0.0167069 0.144623 -4.14676 0.0762138 -0.0905252 0.551209
128 1 9.98387 10.0303 9.95051 0.0331822 -0.78117 -1.22155 0.168332 -4.1313 0.00567227 -0.360191 -0.133414
