 # Bcc Fe oriented X=[111], Y=[-101], Z=[1-21].
  
       21900  atoms
           1  atom types
 
      0.000000000000      26.061302510000  xlo xhi
      0.000000000000     141.859762450000  ylo yhi
      0.000000000000      70.202376000000  zlo zhi
 
Masses
 
            1   55.84500000             # Fe
 
Atoms # atomic
 
         1    1        0.000000000000       0.000000000000       0.000000000000
         2    1        0.000000000000       2.026568030000       3.510118800000
         3    1        1.737420160000       0.000000000000       4.680158400000
         4    1        1.737420160000       2.026568030000       1.170039600000
         5    1        0.868710090000       0.000000000000       2.340079200000
         6    1        0.868710090000       2.026568030000       5.850198000000
         7    1        2.606130250000       0.000000000000       0.000000000000
         8    1        2.606130250000       2.026568030000       3.510118800000
         9    1        4.343550410000       0.000000000000       4.680158400000
        10    1        4.343550410000       2.026568030000       1.170039600000
        11    1        3.474840340000       0.000000000000       2.340079200000
        12    1        3.474840340000       2.026568030000       5.850198000000
        13    1        5.212260500000       0.000000000000       0.000000000000
        14    1        5.212260500000       2.026568030000       3.510118800000
        15    1        6.949680660000       0.000000000000       4.680158400000
        16    1        6.949680660000       2.026568030000       1.170039600000
        17    1        6.080970590000       0.000000000000       2.340079200000
        18    1        6.080970590000       2.026568030000       5.850198000000
        19    1        7.818390750000       0.000000000000       0.000000000000
        20    1        7.818390750000       2.026568030000       3.510118800000
        21    1        9.555810920000       0.000000000000       4.680158400000
        22    1        9.555810920000       2.026568030000       1.170039600000
        23    1        8.687100840000       0.000000000000       2.340079200000
        24    1        8.687100840000       2.026568030000       5.850198000000
        25    1       10.424521000000       0.000000000000       0.000000000000
        26    1       10.424521000000       2.026568030000       3.510118800000
        27    1       12.161941170000       0.000000000000       4.680158400000
        28    1       12.161941170000       2.026568030000       1.170039600000
        29    1       11.293231090000       0.000000000000       2.340079200000
        30    1       11.293231090000       2.026568030000       5.850198000000
        31    1       13.030651250000       0.000000000000       0.000000000000
        32    1       13.030651250000       2.026568030000       3.510118800000
        33    1       14.768071420000       0.000000000000       4.680158400000
        34    1       14.768071420000       2.026568030000       1.170039600000
        35    1       13.899361340000       0.000000000000       2.340079200000
        36    1       13.899361340000       2.026568030000       5.850198000000
        37    1       15.636781500000       0.000000000000       0.000000000000
        38    1       15.636781500000       2.026568030000       3.510118800000
        39    1       17.374201670000       0.000000000000       4.680158400000
        40    1       17.374201670000       2.026568030000       1.170039600000
        41    1       16.505491590000       0.000000000000       2.340079200000
        42    1       16.505491590000       2.026568030000       5.850198000000
        43    1       18.242911750000       0.000000000000       0.000000000000
        44    1       18.242911750000       2.026568030000       3.510118800000
        45    1       19.980331920000       0.000000000000       4.680158400000
        46    1       19.980331920000       2.026568030000       1.170039600000
        47    1       19.111621840000       0.000000000000       2.340079200000
        48    1       19.111621840000       2.026568030000       5.850198000000
        49    1       20.849042000000       0.000000000000       0.000000000000
        50    1       20.849042000000       2.026568030000       3.510118800000
        51    1       22.586462170000       0.000000000000       4.680158400000
        52    1       22.586462170000       2.026568030000       1.170039600000
        53    1       21.717752090000       0.000000000000       2.340079200000
        54    1       21.717752090000       2.026568030000       5.850198000000
        55    1       23.455172250000       0.000000000000       0.000000000000
        56    1       23.455172250000       2.026568030000       3.510118800000
        57    1       25.192592420000       0.000000000000       4.680158400000
        58    1       25.192592420000       2.026568030000       1.170039600000
        59    1       24.323882340000       0.000000000000       2.340079200000
        60    1       24.323882340000       2.026568030000       5.850198000000
        61    1        0.000000000000       4.053136070000       0.000000000000
        62    1        0.000000000000       6.079704100000       3.510118800000
        63    1        1.737420160000       4.053136070000       4.680158400000
        64    1        1.737420160000       6.079704100000       1.170039600000
        65    1        0.868710090000       4.053136070000       2.340079200000
        66    1        0.868710090000       6.079704100000       5.850198000000
        67    1        2.606130250000       4.053136070000       0.000000000000
        68    1        2.606130250000       6.079704100000       3.510118800000
        69    1        4.343550410000       4.053136070000       4.680158400000
        70    1        4.343550410000       6.079704100000       1.170039600000
        71    1        3.474840340000       4.053136070000       2.340079200000
        72    1        3.474840340000       6.079704100000       5.850198000000
        73    1        5.212260500000       4.053136070000       0.000000000000
        74    1        5.212260500000       6.079704100000       3.510118800000
        75    1        6.949680660000       4.053136070000       4.680158400000
        76    1        6.949680660000       6.079704100000       1.170039600000
        77    1        6.080970590000       4.053136070000       2.340079200000
        78    1        6.080970590000       6.079704100000       5.850198000000
        79    1        7.818390750000       4.053136070000       0.000000000000
        80    1        7.818390750000       6.079704100000       3.510118800000
        81    1        9.555810920000       4.053136070000       4.680158400000
        82    1        9.555810920000       6.079704100000       1.170039600000
        83    1        8.687100840000       4.053136070000       2.340079200000
        84    1        8.687100840000       6.079704100000       5.850198000000
        85    1       10.424521000000       4.053136070000       0.000000000000
        86    1       10.424521000000       6.079704100000       3.510118800000
        87    1       12.161941170000       4.053136070000       4.680158400000
        88    1       12.161941170000       6.079704100000       1.170039600000
        89    1       11.293231090000       4.053136070000       2.340079200000
        90    1       11.293231090000       6.079704100000       5.850198000000
        91    1       13.030651250000       4.053136070000       0.000000000000
        92    1       13.030651250000       6.079704100000       3.510118800000
        93    1       14.768071420000       4.053136070000       4.680158400000
        94    1       14.768071420000       6.079704100000       1.170039600000
        95    1       13.899361340000       4.053136070000       2.340079200000
        96    1       13.899361340000       6.079704100000       5.850198000000
        97    1       15.636781500000       4.053136070000       0.000000000000
        98    1       15.636781500000       6.079704100000       3.510118800000
        99    1       17.374201670000       4.053136070000       4.680158400000
       100    1       17.374201670000       6.079704100000       1.170039600000
       101    1       16.505491590000       4.053136070000       2.340079200000
       102    1       16.505491590000       6.079704100000       5.850198000000
       103    1       18.242911750000       4.053136070000       0.000000000000
       104    1       18.242911750000       6.079704100000       3.510118800000
       105    1       19.980331920000       4.053136070000       4.680158400000
       106    1       19.980331920000       6.079704100000       1.170039600000
       107    1       19.111621840000       4.053136070000       2.340079200000
       108    1       19.111621840000       6.079704100000       5.850198000000
       109    1       20.849042000000       4.053136070000       0.000000000000
       110    1       20.849042000000       6.079704100000       3.510118800000
       111    1       22.586462170000       4.053136070000       4.680158400000
       112    1       22.586462170000       6.079704100000       1.170039600000
       113    1       21.717752090000       4.053136070000       2.340079200000
       114    1       21.717752090000       6.079704100000       5.850198000000
       115    1       23.455172250000       4.053136070000       0.000000000000
       116    1       23.455172250000       6.079704100000       3.510118800000
       117    1       25.192592420000       4.053136070000       4.680158400000
       118    1       25.192592420000       6.079704100000       1.170039600000
       119    1       24.323882340000       4.053136070000       2.340079200000
       120    1       24.323882340000       6.079704100000       5.850198000000
       121    1        0.000000000000       8.106272140000       0.000000000000
       122    1        0.000000000000      10.132840170000       3.510118800000
       123    1        1.737420160000       8.106272140000       4.680158400000
       124    1        1.737420160000      10.132840170000       1.170039600000
       125    1        0.868710090000       8.106272140000       2.340079200000
       126    1        0.868710090000      10.132840170000       5.850198000000
       127    1        2.606130250000       8.106272140000       0.000000000000
       128    1        2.606130250000      10.132840170000       3.510118800000
       129    1        4.343550410000       8.106272140000       4.680158400000
       130    1        4.343550410000      10.132840170000       1.170039600000
       131    1        3.474840340000       8.106272140000       2.340079200000
       132    1        3.474840340000      10.132840170000       5.850198000000
       133    1        5.212260500000       8.106272140000       0.000000000000
       134    1        5.212260500000      10.132840170000       3.510118800000
       135    1        6.949680660000       8.106272140000       4.680158400000
       136    1        6.949680660000      10.132840170000       1.170039600000
       137    1        6.080970590000       8.106272140000       2.340079200000
       138    1        6.080970590000      10.132840170000       5.850198000000
       139    1        7.818390750000       8.106272140000       0.000000000000
       140    1        7.818390750000      10.132840170000       3.510118800000
       141    1        9.555810920000       8.106272140000       4.680158400000
       142    1        9.555810920000      10.132840170000       1.170039600000
       143    1        8.687100840000       8.106272140000       2.340079200000
       144    1        8.687100840000      10.132840170000       5.850198000000
       145    1       10.424521000000       8.106272140000       0.000000000000
       146    1       10.424521000000      10.132840170000       3.510118800000
       147    1       12.161941170000       8.106272140000       4.680158400000
       148    1       12.161941170000      10.132840170000       1.170039600000
       149    1       11.293231090000       8.106272140000       2.340079200000
       150    1       11.293231090000      10.132840170000       5.850198000000
       151    1       13.030651250000       8.106272140000       0.000000000000
       152    1       13.030651250000      10.132840170000       3.510118800000
       153    1       14.768071420000       8.106272140000       4.680158400000
       154    1       14.768071420000      10.132840170000       1.170039600000
       155    1       13.899361340000       8.106272140000       2.340079200000
       156    1       13.899361340000      10.132840170000       5.850198000000
       157    1       15.636781500000       8.106272140000       0.000000000000
       158    1       15.636781500000      10.132840170000       3.510118800000
       159    1       17.374201670000       8.106272140000       4.680158400000
       160    1       17.374201670000      10.132840170000       1.170039600000
       161    1       16.505491590000       8.106272140000       2.340079200000
       162    1       16.505491590000      10.132840170000       5.850198000000
       163    1       18.242911750000       8.106272140000       0.000000000000
       164    1       18.242911750000      10.132840170000       3.510118800000
       165    1       19.980331920000       8.106272140000       4.680158400000
       166    1       19.980331920000      10.132840170000       1.170039600000
       167    1       19.111621840000       8.106272140000       2.340079200000
       168    1       19.111621840000      10.132840170000       5.850198000000
       169    1       20.849042000000       8.106272140000       0.000000000000
       170    1       20.849042000000      10.132840170000       3.510118800000
       171    1       22.586462170000       8.106272140000       4.680158400000
       172    1       22.586462170000      10.132840170000       1.170039600000
       173    1       21.717752090000       8.106272140000       2.340079200000
       174    1       21.717752090000      10.132840170000       5.850198000000
       175    1       23.455172250000       8.106272140000       0.000000000000
       176    1       23.455172250000      10.132840170000       3.510118800000
       177    1       25.192592420000       8.106272140000       4.680158400000
       178    1       25.192592420000      10.132840170000       1.170039600000
       179    1       24.323882340000       8.106272140000       2.340079200000
       180    1       24.323882340000      10.132840170000       5.850198000000
       181    1        0.000000000000      12.159408210000       0.000000000000
       182    1        0.000000000000      14.185976240000       3.510118800000
       183    1        1.737420160000      12.159408210000       4.680158400000
       184    1        1.737420160000      14.185976240000       1.170039600000
       185    1        0.868710090000      12.159408210000       2.340079200000
       186    1        0.868710090000      14.185976240000       5.850198000000
       187    1        2.606130250000      12.159408210000       0.000000000000
       188    1        2.606130250000      14.185976240000       3.510118800000
       189    1        4.343550410000      12.159408210000       4.680158400000
       190    1        4.343550410000      14.185976240000       1.170039600000
       191    1        3.474840340000      12.159408210000       2.340079200000
       192    1        3.474840340000      14.185976240000       5.850198000000
       193    1        5.212260500000      12.159408210000       0.000000000000
       194    1        5.212260500000      14.185976240000       3.510118800000
       195    1        6.949680660000      12.159408210000       4.680158400000
       196    1        6.949680660000      14.185976240000       1.170039600000
       197    1        6.080970590000      12.159408210000       2.340079200000
       198    1        6.080970590000      14.185976240000       5.850198000000
       199    1        7.818390750000      12.159408210000       0.000000000000
       200    1        7.818390750000      14.185976240000       3.510118800000
       201    1        9.555810920000      12.159408210000       4.680158400000
       202    1        9.555810920000      14.185976240000       1.170039600000
       203    1        8.687100840000      12.159408210000       2.340079200000
       204    1        8.687100840000      14.185976240000       5.850198000000
       205    1       10.424521000000      12.159408210000       0.000000000000
       206    1       10.424521000000      14.185976240000       3.510118800000
       207    1       12.161941170000      12.159408210000       4.680158400000
       208    1       12.161941170000      14.185976240000       1.170039600000
       209    1       11.293231090000      12.159408210000       2.340079200000
       210    1       11.293231090000      14.185976240000       5.850198000000
       211    1       13.030651250000      12.159408210000       0.000000000000
       212    1       13.030651250000      14.185976240000       3.510118800000
       213    1       14.768071420000      12.159408210000       4.680158400000
       214    1       14.768071420000      14.185976240000       1.170039600000
       215    1       13.899361340000      12.159408210000       2.340079200000
       216    1       13.899361340000      14.185976240000       5.850198000000
       217    1       15.636781500000      12.159408210000       0.000000000000
       218    1       15.636781500000      14.185976240000       3.510118800000
       219    1       17.374201670000      12.159408210000       4.680158400000
       220    1       17.374201670000      14.185976240000       1.170039600000
       221    1       16.505491590000      12.159408210000       2.340079200000
       222    1       16.505491590000      14.185976240000       5.850198000000
       223    1       18.242911750000      12.159408210000       0.000000000000
       224    1       18.242911750000      14.185976240000       3.510118800000
       225    1       19.980331920000      12.159408210000       4.680158400000
       226    1       19.980331920000      14.185976240000       1.170039600000
       227    1       19.111621840000      12.159408210000       2.340079200000
       228    1       19.111621840000      14.185976240000       5.850198000000
       229    1       20.849042000000      12.159408210000       0.000000000000
       230    1       20.849042000000      14.185976240000       3.510118800000
       231    1       22.586462170000      12.159408210000       4.680158400000
       232    1       22.586462170000      14.185976240000       1.170039600000
       233    1       21.717752090000      12.159408210000       2.340079200000
       234    1       21.717752090000      14.185976240000       5.850198000000
       235    1       23.455172250000      12.159408210000       0.000000000000
       236    1       23.455172250000      14.185976240000       3.510118800000
       237    1       25.192592420000      12.159408210000       4.680158400000
       238    1       25.192592420000      14.185976240000       1.170039600000
       239    1       24.323882340000      12.159408210000       2.340079200000
       240    1       24.323882340000      14.185976240000       5.850198000000
       241    1        0.000000000000      16.212544280000       0.000000000000
       242    1        0.000000000000      18.239112310000       3.510118800000
       243    1        1.737420160000      16.212544280000       4.680158400000
       244    1        1.737420160000      18.239112310000       1.170039600000
       245    1        0.868710090000      16.212544280000       2.340079200000
       246    1        0.868710090000      18.239112310000       5.850198000000
       247    1        2.606130250000      16.212544280000       0.000000000000
       248    1        2.606130250000      18.239112310000       3.510118800000
       249    1        4.343550410000      16.212544280000       4.680158400000
       250    1        4.343550410000      18.239112310000       1.170039600000
       251    1        3.474840340000      16.212544280000       2.340079200000
       252    1        3.474840340000      18.239112310000       5.850198000000
       253    1        5.212260500000      16.212544280000       0.000000000000
       254    1        5.212260500000      18.239112310000       3.510118800000
       255    1        6.949680660000      16.212544280000       4.680158400000
       256    1        6.949680660000      18.239112310000       1.170039600000
       257    1        6.080970590000      16.212544280000       2.340079200000
       258    1        6.080970590000      18.239112310000       5.850198000000
       259    1        7.818390750000      16.212544280000       0.000000000000
       260    1        7.818390750000      18.239112310000       3.510118800000
       261    1        9.555810920000      16.212544280000       4.680158400000
       262    1        9.555810920000      18.239112310000       1.170039600000
       263    1        8.687100840000      16.212544280000       2.340079200000
       264    1        8.687100840000      18.239112310000       5.850198000000
       265    1       10.424521000000      16.212544280000       0.000000000000
       266    1       10.424521000000      18.239112310000       3.510118800000
       267    1       12.161941170000      16.212544280000       4.680158400000
       268    1       12.161941170000      18.239112310000       1.170039600000
       269    1       11.293231090000      16.212544280000       2.340079200000
       270    1       11.293231090000      18.239112310000       5.850198000000
       271    1       13.030651250000      16.212544280000       0.000000000000
       272    1       13.030651250000      18.239112310000       3.510118800000
       273    1       14.768071420000      16.212544280000       4.680158400000
       274    1       14.768071420000      18.239112310000       1.170039600000
       275    1       13.899361340000      16.212544280000       2.340079200000
       276    1       13.899361340000      18.239112310000       5.850198000000
       277    1       15.636781500000      16.212544280000       0.000000000000
       278    1       15.636781500000      18.239112310000       3.510118800000
       279    1       17.374201670000      16.212544280000       4.680158400000
       280    1       17.374201670000      18.239112310000       1.170039600000
       281    1       16.505491590000      16.212544280000       2.340079200000
       282    1       16.505491590000      18.239112310000       5.850198000000
       283    1       18.242911750000      16.212544280000       0.000000000000
       284    1       18.242911750000      18.239112310000       3.510118800000
       285    1       19.980331920000      16.212544280000       4.680158400000
       286    1       19.980331920000      18.239112310000       1.170039600000
       287    1       19.111621840000      16.212544280000       2.340079200000
       288    1       19.111621840000      18.239112310000       5.850198000000
       289    1       20.849042000000      16.212544280000       0.000000000000
       290    1       20.849042000000      18.239112310000       3.510118800000
       291    1       22.586462170000      16.212544280000       4.680158400000
       292    1       22.586462170000      18.239112310000       1.170039600000
       293    1       21.717752090000      16.212544280000       2.340079200000
       294    1       21.717752090000      18.239112310000       5.850198000000
       295    1       23.455172250000      16.212544280000       0.000000000000
       296    1       23.455172250000      18.239112310000       3.510118800000
       297    1       25.192592420000      16.212544280000       4.680158400000
       298    1       25.192592420000      18.239112310000       1.170039600000
       299    1       24.323882340000      16.212544280000       2.340079200000
       300    1       24.323882340000      18.239112310000       5.850198000000
       301    1        0.000000000000      20.265680350000       0.000000000000
       302    1        0.000000000000      22.292248380000       3.510118800000
       303    1        1.737420160000      20.265680350000       4.680158400000
       304    1        1.737420160000      22.292248380000       1.170039600000
       305    1        0.868710090000      20.265680350000       2.340079200000
       306    1        0.868710090000      22.292248380000       5.850198000000
       307    1        2.606130250000      20.265680350000       0.000000000000
       308    1        2.606130250000      22.292248380000       3.510118800000
       309    1        4.343550410000      20.265680350000       4.680158400000
       310    1        4.343550410000      22.292248380000       1.170039600000
       311    1        3.474840340000      20.265680350000       2.340079200000
       312    1        3.474840340000      22.292248380000       5.850198000000
       313    1        5.212260500000      20.265680350000       0.000000000000
       314    1        5.212260500000      22.292248380000       3.510118800000
       315    1        6.949680660000      20.265680350000       4.680158400000
       316    1        6.949680660000      22.292248380000       1.170039600000
       317    1        6.080970590000      20.265680350000       2.340079200000
       318    1        6.080970590000      22.292248380000       5.850198000000
       319    1        7.818390750000      20.265680350000       0.000000000000
       320    1        7.818390750000      22.292248380000       3.510118800000
       321    1        9.555810920000      20.265680350000       4.680158400000
       322    1        9.555810920000      22.292248380000       1.170039600000
       323    1        8.687100840000      20.265680350000       2.340079200000
       324    1        8.687100840000      22.292248380000       5.850198000000
       325    1       10.424521000000      20.265680350000       0.000000000000
       326    1       10.424521000000      22.292248380000       3.510118800000
       327    1       12.161941170000      20.265680350000       4.680158400000
       328    1       12.161941170000      22.292248380000       1.170039600000
       329    1       11.293231090000      20.265680350000       2.340079200000
       330    1       11.293231090000      22.292248380000       5.850198000000
       331    1       13.030651250000      20.265680350000       0.000000000000
       332    1       13.030651250000      22.292248380000       3.510118800000
       333    1       14.768071420000      20.265680350000       4.680158400000
       334    1       14.768071420000      22.292248380000       1.170039600000
       335    1       13.899361340000      20.265680350000       2.340079200000
       336    1       13.899361340000      22.292248380000       5.850198000000
       337    1       15.636781500000      20.265680350000       0.000000000000
       338    1       15.636781500000      22.292248380000       3.510118800000
       339    1       17.374201670000      20.265680350000       4.680158400000
       340    1       17.374201670000      22.292248380000       1.170039600000
       341    1       16.505491590000      20.265680350000       2.340079200000
       342    1       16.505491590000      22.292248380000       5.850198000000
       343    1       18.242911750000      20.265680350000       0.000000000000
       344    1       18.242911750000      22.292248380000       3.510118800000
       345    1       19.980331920000      20.265680350000       4.680158400000
       346    1       19.980331920000      22.292248380000       1.170039600000
       347    1       19.111621840000      20.265680350000       2.340079200000
       348    1       19.111621840000      22.292248380000       5.850198000000
       349    1       20.849042000000      20.265680350000       0.000000000000
       350    1       20.849042000000      22.292248380000       3.510118800000
       351    1       22.586462170000      20.265680350000       4.680158400000
       352    1       22.586462170000      22.292248380000       1.170039600000
       353    1       21.717752090000      20.265680350000       2.340079200000
       354    1       21.717752090000      22.292248380000       5.850198000000
       355    1       23.455172250000      20.265680350000       0.000000000000
       356    1       23.455172250000      22.292248380000       3.510118800000
       357    1       25.192592420000      20.265680350000       4.680158400000
       358    1       25.192592420000      22.292248380000       1.170039600000
       359    1       24.323882340000      20.265680350000       2.340079200000
       360    1       24.323882340000      22.292248380000       5.850198000000
       361    1        0.000000000000      24.318816420000       0.000000000000
       362    1        0.000000000000      26.345384450000       3.510118800000
       363    1        1.737420160000      24.318816420000       4.680158400000
       364    1        1.737420160000      26.345384450000       1.170039600000
       365    1        0.868710090000      24.318816420000       2.340079200000
       366    1        0.868710090000      26.345384450000       5.850198000000
       367    1        2.606130250000      24.318816420000       0.000000000000
       368    1        2.606130250000      26.345384450000       3.510118800000
       369    1        4.343550410000      24.318816420000       4.680158400000
       370    1        4.343550410000      26.345384450000       1.170039600000